/*--------------------------------*- C++ -*----------------------------------*\
| =========                 |                                                 |
| \\      /  F ield         | OpenFOAM: The Open Source CFD Toolbox           |
|  \\    /   O peration     | Version:  5.x                                   |
|   \\  /    A nd           | Web:      www.OpenFOAM.org                      |
|    \\/     M anipulation  |                                                 |
\*---------------------------------------------------------------------------*/
/*   Windows 32 and 64 bit porting by blueCAPE: http://www.bluecape.com.pt   *\
|  Based on Windows porting (2.0.x v4) by Symscape: http://www.symscape.com   |
\*---------------------------------------------------------------------------*/
FoamFile
{
    version     2.0;
    format      ascii;
    class       volScalarField;
    location    "6000.00000000";
    object      p;
}
// * * * * * * * * * * * * * * * * * * * * * * * * * * * * * * * * * * * * * //

dimensions      [0 2 -2 0 0 0 0];

internalField   nonuniform List<scalar> 
51000
(
0.00022649423
0.00025403684
0.00024085886
0.00018110924
0.00015232617
0.00014819807
9.1059588e-005
0.00011158315
9.4256709e-005
-3.7932407e-005
-0.00011058363
-7.2790285e-005
-5.8137816e-005
-6.6342759e-005
-9.6970387e-005
7.3472837e-006
0.00010815041
-1.5030295e-005
5.523508e-006
0.00026546045
0.00027490221
2.2410335e-005
-0.00011985196
-8.8401735e-005
6.5067883e-005
6.903984e-005
-4.9529982e-005
-9.1582503e-005
-2.0406312e-005
0.0001043268
0.00022719484
0.00025422391
0.00024091553
0.00018088562
0.00015169564
0.00014806975
9.1068926e-005
0.00011241246
9.4976288e-005
-3.8515397e-005
-0.00011187455
-7.2798542e-005
-5.7251429e-005
-6.5264632e-005
-9.8413649e-005
5.889907e-006
0.00010775887
-1.5893389e-005
3.0809264e-006
0.00026565736
0.00027691514
2.3439775e-005
-0.00011868867
-8.6973032e-005
6.6580531e-005
7.0759233e-005
-5.0369815e-005
-9.2288521e-005
-2.2287092e-005
0.00010267558
0.00022446597
0.00025271445
0.00024077828
0.00018086415
0.00015112885
0.00014830432
9.1284739e-005
0.00011275442
9.50419e-005
-4.0300648e-005
-0.0001135383
-7.2400335e-005
-5.6455467e-005
-6.6068219e-005
-0.00010508485
1.1278676e-006
0.00010875001
-1.7938422e-005
-1.020868e-006
0.00026802703
0.00028058338
2.5053662e-005
-0.00011724999
-8.6407432e-005
6.3591059e-005
6.4864762e-005
-5.5091927e-005
-9.5017381e-005
-2.5984185e-005
9.712732e-005
0.00021113858
0.00024383449
0.00023780297
0.0001803927
0.00015068259
0.00014796491
9.2497046e-005
0.0001130636
9.4556024e-005
-4.3318398e-005
-0.00011595209
-7.1399371e-005
-5.4917608e-005
-6.7063961e-005
-0.00011649868
-9.3935892e-006
0.00010446914
-2.3401083e-005
-6.7723351e-006
0.00027338817
0.00028569903
2.6836724e-005
-0.00011181868
-8.052147e-005
6.1285899e-005
5.1512034e-005
-6.6437583e-005
-0.00010089987
-3.2601622e-005
8.3827911e-005
0.00018722172
0.00022413223
0.00022752958
0.00017841421
0.00015042545
0.00014554371
9.4105123e-005
0.00011453445
9.5214429e-005
-4.6739076e-005
-0.00012073937
-7.1881237e-005
-5.3169187e-005
-6.5501305e-005
-0.00012833741
-2.6290762e-005
9.3489188e-005
-3.2793775e-005
-1.3788936e-005
0.00028167187
0.00029633854
2.8086217e-005
-0.00010154742
-6.4641122e-005
6.8060255e-005
3.8490629e-005
-8.5539964e-005
-0.0001101286
-4.1306738e-005
6.6676468e-005
0.00016693719
0.00020067324
0.00020733349
0.00017343548
0.00015063938
0.00014124305
9.5064474e-005
0.00011709474
9.8741776e-005
-4.8527282e-005
-0.00012836471
-7.8312731e-005
-5.4751382e-005
-6.2123955e-005
-0.0001367288
-4.9424994e-005
7.4324752e-005
-4.6000223e-005
-2.1845499e-005
0.00029004947
0.00031805216
2.9127959e-005
-9.5735512e-005
-4.196559e-005
8.0686495e-005
3.6635482e-005
-0.00010869077
-0.00012241845
-5.259271e-005
6.0004792e-005
0.0001519607
0.00018355451
0.00018780893
0.00016324658
0.00015122185
0.00013992574
9.4674554e-005
0.00011940974
0.00010549628
-4.0292005e-005
-0.00013629624
-8.9336628e-005
-6.245912e-005
-5.9278831e-005
-0.00013682666
-7.2611937e-005
4.8645662e-005
-6.0960898e-005
-3.2696008e-005
0.000293197
0.0003326239
3.2533003e-005
-0.00010138226
-2.5676427e-005
9.3569243e-005
4.3439203e-005
-0.00012608644
-0.00013365317
-5.6748663e-005
5.8836039e-005
0.00013083564
0.00016299147
0.00016959215
0.00015699828
0.00015128552
0.00014054862
9.2519926e-005
0.00011817765
0.00011337356
-2.9538061e-005
-0.00014122474
-9.9344657e-005
-7.7132922e-005
-6.2080819e-005
-0.00013219091
-8.9996002e-005
2.5154635e-005
-7.2717344e-005
-4.8058706e-005
0.00028551024
0.00034219991
3.6660644e-005
-0.0001170483
-2.8923398e-005
9.8766917e-005
6.0436438e-005
-0.00012892655
-0.0001400664
-5.9097595e-005
5.550811e-005
0.00010608389
0.00013647978
0.00014185622
0.00013897287
0.00014666365
0.00014176795
8.3954752e-005
0.00011120822
0.00011757517
-1.9028997e-005
-0.00014338781
-0.00010153267
-9.2143764e-005
-7.5796043e-005
-0.00013002159
-9.030241e-005
1.1273435e-005
-7.4185284e-005
-6.1861049e-005
0.00026753896
0.0003438179
3.5410198e-005
-0.0001428644
-4.231962e-005
9.3355685e-005
6.8827791e-005
-0.00011544489
-0.00013706424
-5.7447755e-005
4.7450757e-005
9.1048219e-005
0.0001227427
0.0001120389
0.00011229996
0.000138489
0.00014129884
7.795505e-005
0.0001038716
0.00011756165
-1.649095e-005
-0.00014714178
-9.5721237e-005
-9.7113118e-005
-0.00010047027
-0.00013687045
-8.7526956e-005
1.3329527e-005
-5.8888059e-005
-6.9101758e-005
0.00024156946
0.0003363383
2.4915795e-005
-0.00018910493
-6.0413622e-005
8.2757602e-005
6.0508718e-005
-9.9061277e-005
-0.00012715145
-4.9953488e-005
4.2587178e-005
8.3525424e-005
0.00012483982
9.7846028e-005
8.4287854e-005
0.00012776989
0.00013460698
7.7325344e-005
0.00011352469
0.00012026836
-2.5262581e-005
-0.00016055726
-8.3946839e-005
-8.4512459e-005
-0.00012940805
-0.00015515441
-8.8360061e-005
2.2255571e-005
-4.7756927e-005
-8.118073e-005
0.00020187072
0.00031877376
2.7465052e-005
-0.00022504742
-8.2190048e-005
7.745427e-005
3.3019451e-005
-8.984568e-005
-0.00012753784
-4.2372153e-005
4.5602479e-005
8.3504556e-005
0.00013125413
9.3382813e-005
4.9869253e-005
0.000106286
0.00013275476
8.0432453e-005
0.00013978859
0.00013233793
-3.1190347e-005
-0.00016722915
-6.9708763e-005
-5.1780268e-005
-0.00013792469
-0.00016097585
-9.6682347e-005
1.5557271e-005
-4.67685e-005
-0.00011202839
0.00014225116
0.00028065394
4.1652402e-005
-0.00020894279
-9.2790254e-005
7.5791077e-005
1.6722115e-005
-9.0322355e-005
-0.00014802348
-3.4735778e-005
5.3962961e-005
8.653019e-005
0.00013715047
9.3731831e-005
9.7277227e-006
7.6453866e-005
0.00010221296
7.2141073e-005
0.00016888545
0.00016153383
-1.055348e-005
-0.00015195161
-5.8153582e-005
-7.1596027e-006
-0.00011488799
-0.00013788875
-9.3184918e-005
-6.4952309e-006
-4.6578159e-005
-0.00012828692
8.1908564e-005
0.0002307087
4.9718183e-005
-0.0001708892
-8.6788999e-005
7.2164818e-005
1.4213011e-005
-8.5648141e-005
-0.00014823961
-2.3566182e-005
5.1780223e-005
8.4403102e-005
0.00013531407
9.6701435e-005
-2.2738104e-005
4.4456393e-005
7.8748447e-005
5.8681948e-005
0.00018479283
0.00021842518
3.5619051e-005
-0.00012994535
-4.1734412e-005
4.1074845e-005
-6.8843877e-005
-0.00011106426
-6.7887584e-005
-1.5562926e-005
-3.8131922e-005
-0.0001039101
6.263758e-005
0.00019976238
5.8079617e-005
-0.00013010322
-7.5639167e-005
6.3763504e-005
1.7984735e-005
-9.705039e-005
-0.00015932168
-1.8921288e-005
5.2872699e-005
7.8325165e-005
0.0001261104
9.7228872e-005
-3.1021241e-005
1.0331265e-005
7.0251726e-005
5.8196284e-005
0.00019314607
0.00025099334
6.4070083e-005
-0.00012630826
-3.0958006e-005
7.7916873e-005
-3.7547174e-005
-8.6058332e-005
-3.7670626e-005
-1.0815295e-005
-2.1182962e-005
-4.4949964e-005
7.2047697e-005
0.0001918887
6.1025235e-005
-9.2606146e-005
-6.1970997e-005
5.1524187e-005
2.2464754e-005
-7.6640888e-005
-0.00016808868
-2.6334112e-005
5.637748e-005
7.1068646e-005
0.00011307164
9.8111671e-005
-2.5931859e-005
-2.2916833e-005
6.6878988e-005
8.106034e-005
0.00019240361
0.0002425371
6.1355784e-005
-0.00013802127
-2.8368785e-005
0.0001034504
-1.6280648e-005
-6.943642e-005
-1.9241094e-005
-2.2602444e-006
-5.6063785e-006
9.443021e-006
7.5567697e-005
0.00017170266
5.8116928e-005
-6.5370111e-005
-4.8344041e-005
3.6243531e-005
2.9192394e-005
-4.6312565e-005
-0.00013897957
-3.7387814e-005
6.0370251e-005
6.7858009e-005
0.00010041405
9.6076261e-005
-1.1287773e-005
-4.4266946e-005
4.5741715e-005
8.8140194e-005
0.00017950721
0.00022395471
5.4731532e-005
-0.00014763063
-5.4442881e-005
8.6787506e-005
-1.0571541e-005
-5.9789623e-005
-9.8512026e-006
-4.7319981e-006
-1.4751798e-006
3.5542461e-005
8.829849e-005
0.00014625605
5.972332e-005
-4.1338172e-005
-3.5357319e-005
2.6646217e-005
3.5495134e-005
-1.942153e-005
-0.00010453391
-4.8719063e-005
6.1592454e-005
6.7848091e-005
9.582041e-005
8.9309824e-005
1.1198226e-006
-2.8516406e-005
2.9653602e-005
7.638835e-005
0.0001616073
0.00020877017
4.9312821e-005
-0.00014289658
-8.0774766e-005
4.939699e-005
-1.795137e-005
-3.8727586e-005
2.0332717e-005
-1.2929756e-005
-1.2568553e-005
3.942083e-005
8.252893e-005
0.00011699534
6.7011332e-005
-1.9142311e-005
-2.3693471e-005
2.3517383e-005
3.9569905e-005
-1.4995864e-007
-8.4318104e-005
-5.9261314e-005
3.6534802e-005
6.2350505e-005
9.3863338e-005
8.9075988e-005
1.4974932e-005
-1.3658436e-005
2.4993718e-005
6.2743408e-005
0.00014297854
0.00019163027
4.3303333e-005
-0.00013241788
-0.00010642343
-1.805727e-006
-2.8847879e-005
-1.8480469e-005
4.797887e-005
-4.1294132e-006
-2.7672313e-005
3.3789621e-005
7.5368326e-005
9.1954861e-005
7.0549812e-005
-3.6058707e-006
-1.7100056e-005
1.7198223e-005
3.806529e-005
8.1418358e-006
-7.0649706e-005
-6.2121589e-005
1.3042935e-005
5.517237e-005
9.1297817e-005
9.2303396e-005
3.1236854e-005
-2.6470502e-006
1.7092318e-005
4.8612309e-005
0.000135083
0.00017573488
3.3948096e-005
-0.00012357888
-0.00013094498
-5.1814344e-005
-2.9233394e-005
9.8848707e-006
7.6692631e-005
3.6049644e-005
-3.4576564e-005
2.0140138e-005
6.6244502e-005
7.7609199e-005
4.8730481e-005
1.1296596e-006
-1.9868371e-005
3.4077632e-006
3.1144556e-005
1.660569e-005
-5.384871e-005
-4.6673662e-005
-8.9198709e-006
4.7119428e-005
7.1424631e-005
8.809046e-005
4.457989e-005
1.2802305e-005
1.9217475e-005
4.1255725e-005
0.00013552399
0.00016524214
2.8930476e-005
-0.00012242911
-0.000148805
-8.2777829e-005
-2.2040161e-005
2.9736291e-005
9.070164e-005
6.589876e-005
-3.1456305e-005
4.1682702e-006
5.6152331e-005
6.7772054e-005
3.6031858e-005
-7.9011053e-006
-2.5062807e-005
-1.4831677e-005
1.5453676e-005
1.6086761e-005
-3.4958457e-005
-5.0787127e-005
-2.0486686e-005
4.1983992e-005
6.6577196e-005
8.5309568e-005
5.1540444e-005
2.6204553e-005
2.9307377e-005
3.8638469e-005
0.00012906956
0.0001588394
3.9520561e-005
-0.00010065385
-0.00014901444
-0.00010414498
-3.0464545e-005
3.7958892e-005
9.0378878e-005
7.5272508e-005
-2.6311255e-005
-9.3939807e-006
4.7587215e-005
6.2077549e-005
2.7367069e-005
-1.0392346e-005
-2.9168997e-005
-3.3065334e-005
-3.2592866e-006
1.0750475e-005
-2.4327291e-005
-4.754682e-005
-1.8121488e-005
3.4857447e-005
5.685302e-005
7.2621422e-005
5.1391764e-005
3.2718541e-005
3.3986047e-005
4.0049091e-005
0.00011410175
0.00013913229
3.4361248e-005
-9.2508628e-005
-0.00015655286
-0.00013473896
-4.9984847e-005
2.9930393e-005
8.1038048e-005
7.9761582e-005
-1.0901272e-005
-2.0457918e-005
3.7680426e-005
5.639614e-005
2.1999721e-005
-9.9786428e-006
-2.6168671e-005
-4.589493e-005
-1.6598721e-005
8.2533448e-006
-2.2401265e-005
-4.4708357e-005
-1.467427e-005
2.7923972e-005
3.4496226e-005
2.9363784e-005
3.8365226e-005
3.9059729e-005
3.4317966e-005
3.6215925e-005
9.5637595e-005
0.00010762125
2.4474505e-005
-7.8826559e-005
-0.00012353237
-0.00012292274
-5.4077532e-005
2.4832872e-005
7.3632907e-005
8.0349329e-005
1.1320506e-005
-2.623616e-005
2.6135314e-005
4.9630866e-005
1.817532e-005
-7.508631e-006
-2.0204309e-005
-5.2509898e-005
-2.3301385e-005
7.9249234e-006
-2.1282577e-005
-3.6428609e-005
-1.3406402e-005
2.7597894e-005
3.1211872e-005
2.4416296e-005
4.361255e-005
6.4165345e-005
5.2528039e-005
4.2318465e-005
4.0868158e-005
7.0947015e-005
2.2604501e-005
-3.59627e-005
-7.0691103e-005
-8.8681939e-005
-5.4089879e-005
1.3805656e-005
6.0430262e-005
7.6783862e-005
3.0412174e-005
-2.3528365e-005
1.6916346e-005
4.529751e-005
1.8885103e-005
-5.0315201e-007
-1.4846621e-005
-4.8775037e-005
-2.8446408e-005
2.364063e-006
-2.4456892e-006
-1.5929966e-005
-2.8279373e-006
3.7388146e-005
5.4990859e-005
4.3084789e-005
5.9260091e-005
8.6451253e-005
7.3252222e-005
5.6930852e-005
7.1327771e-005
7.0177757e-005
4.5881904e-005
1.1860234e-005
-2.0075552e-005
-5.9605291e-005
-5.8737254e-005
2.6353953e-006
4.9005321e-005
6.9479821e-005
4.8093187e-005
-1.9107093e-005
7.1144269e-006
4.2147777e-005
2.2018373e-005
1.0377065e-005
-8.4064107e-006
-3.579343e-005
-2.9670472e-005
-7.9569e-006
2.8380345e-005
5.3568042e-006
1.7608588e-005
3.1052218e-005
5.5515852e-005
5.6470681e-005
5.2496302e-005
6.8646007e-005
6.4509421e-005
5.7332763e-005
9.1754415e-005
0.00010179832
7.1029815e-005
4.2583695e-005
1.5776746e-005
-2.3887393e-005
-5.7356253e-005
-8.8678439e-007
5.0788528e-005
6.9857082e-005
5.7828024e-005
6.8361154e-006
1.210005e-005
5.2402161e-005
7.7361763e-005
2.5173721e-005
-1.0460613e-005
-3.9036827e-005
-3.2441011e-005
-1.5012334e-005
9.5005324e-006
1.7032392e-005
1.8008316e-005
3.3306172e-005
4.6092099e-005
4.4976604e-005
4.6210606e-005
6.5241519e-005
6.9849266e-005
6.2922379e-005
8.2328751e-005
8.1635114e-005
6.1402298e-005
3.9436718e-005
2.7755251e-005
9.7031931e-007
-3.6747947e-005
2.4949655e-006
5.0003088e-005
6.578879e-005
7.0639087e-005
4.3128622e-005
3.3749744e-005
4.9559267e-005
3.3861008e-005
2.0078901e-005
-1.9128984e-005
-5.621221e-005
-5.1938765e-005
-2.8229593e-005
-2.1155329e-006
1.1183495e-005
2.2390723e-005
4.317403e-005
5.0205142e-005
4.3053181e-005
4.3843309e-005
5.9661017e-005
6.3498576e-005
5.6338433e-005
7.1757845e-005
7.0957708e-005
5.6695493e-005
4.486744e-005
3.4430598e-005
1.7937712e-005
-5.1183626e-006
1.1575213e-005
5.2588684e-005
6.7291179e-005
6.6161832e-005
4.9536961e-005
4.0544844e-005
5.57364e-005
5.7543603e-005
3.7681621e-005
8.0101065e-006
-4.1436848e-005
-5.5920538e-005
-3.8222807e-005
-1.0882766e-005
4.4390678e-006
2.1940852e-005
4.7826562e-005
6.0388616e-005
4.8201219e-005
5.0650912e-005
7.0178116e-005
7.3497878e-005
6.3582248e-005
6.6748193e-005
5.7204047e-005
4.6578714e-005
5.3227133e-005
4.5148162e-005
3.4880989e-005
2.0189213e-005
2.015234e-005
4.8607706e-005
6.5102666e-005
6.4193787e-005
5.2969089e-005
4.5484693e-005
5.0960878e-005
4.4377899e-005
2.9253154e-005
1.495048e-005
-1.9713991e-005
-4.3501124e-005
-3.9038042e-005
-1.6184412e-005
-1.1889863e-006
1.8586174e-005
5.2667625e-005
7.2579934e-005
5.8339909e-005
5.1982626e-005
6.6585069e-005
6.9296075e-005
6.1397502e-005
6.300974e-005
5.5699129e-005
4.3456081e-005
4.490387e-005
3.5381966e-005
3.6904705e-005
2.9498881e-005
2.2736219e-005
4.9322135e-005
7.0407563e-005
6.6526057e-005
5.1894583e-005
5.4375774e-005
5.7318222e-005
4.5698604e-005
2.4471086e-005
9.7084942e-006
-1.4400899e-005
-3.4501457e-005
-2.9335697e-005
-7.7248239e-006
7.8535172e-006
1.8059191e-005
4.8243437e-005
7.8933373e-005
7.2559532e-005
6.508596e-005
6.5816369e-005
6.3341399e-005
5.7439622e-005
6.764367e-005
6.4060584e-005
5.3428151e-005
4.9698657e-005
4.465204e-005
4.8179156e-005
3.160105e-005
2.1282985e-005
3.7865284e-005
6.4896942e-005
6.7459205e-005
5.9441107e-005
6.0830855e-005
6.4501859e-005
5.2538513e-005
2.7820896e-005
1.8530632e-005
1.0294325e-005
-5.6052929e-006
-1.3067888e-005
-4.5313214e-006
-3.2930514e-006
9.1134019e-006
4.9981473e-005
8.3725551e-005
8.3035086e-005
6.9659476e-005
6.5903903e-005
6.0688579e-005
5.6601917e-005
5.9375173e-005
6.752036e-005
6.0094673e-005
4.6917924e-005
4.5690793e-005
5.3388437e-005
4.904798e-005
2.8854539e-005
2.4199314e-005
4.2696151e-005
4.6537389e-005
3.8656774e-005
4.4723849e-005
6.4764495e-005
6.3310966e-005
3.6614187e-005
2.2285366e-005
7.2627994e-006
-2.0659748e-005
-3.0740914e-005
-8.6968109e-006
3.756121e-006
1.3986718e-005
4.5475097e-005
7.0237902e-005
7.1728091e-005
6.4982743e-005
5.9856293e-005
6.2900099e-005
6.2937001e-005
5.6054976e-005
5.7683058e-005
5.8208609e-005
5.2799838e-005
5.7368759e-005
6.7818405e-005
6.4605522e-005
4.8671663e-005
2.2265876e-005
2.0248537e-005
2.3684984e-005
1.2238154e-005
1.9846232e-005
4.1000736e-005
4.2335575e-005
3.0379735e-005
3.6731138e-005
3.2665641e-005
-8.8680809e-007
-1.4841874e-005
6.1000261e-006
1.2495706e-005
2.0752197e-005
0.00012858949
0.00035581617
0.00032797068
0.00013669303
2.6743422e-005
-5.0631956e-006
6.0116303e-005
0.00014613026
0.00015701985
6.3780045e-006
-0.00013160521
-9.177827e-005
-3.2071405e-005
6.1290742e-005
0.00024662187
0.00028708108
0.00019841162
6.7821247e-005
3.1666286e-005
0.00024351365
0.00022701348
-0.00014459678
-0.00026347308
-6.6497333e-007
0.00040741114
0.0003993211
1.333972e-005
-0.00014119925
-6.1630818e-005
-7.8368871e-006
0.00012725931
0.0003568947
0.00032972588
0.00013804901
2.5922118e-005
-6.4394315e-006
5.9085346e-005
0.00014596362
0.00015783439
7.0422117e-006
-0.00013329875
-9.3279487e-005
-3.3305664e-005
5.8923062e-005
0.00024532945
0.00028733021
0.00019872874
6.7984534e-005
3.0438248e-005
0.00024279465
0.00022849587
-0.00014531718
-0.00026992493
-6.9752219e-006
0.00040406244
0.00040350727
1.3518784e-005
-0.00014653521
-6.5903093e-005
-1.0764668e-005
0.00012342659
0.00035791694
0.00033456835
0.00013815613
2.4188798e-005
-8.001689e-006
5.6971518e-005
0.00014517471
0.00015883367
7.9529781e-006
-0.00013442004
-9.4658772e-005
-3.4192162e-005
5.6611183e-005
0.00024278939
0.00028580065
0.00019766076
6.6807241e-005
2.9741935e-005
0.00024202648
0.00023068865
-0.00014650485
-0.00027556604
-1.5473297e-005
0.00039720177
0.00040995638
1.2989626e-005
-0.00015148422
-7.1812388e-005
-1.8962123e-005
0.00011332905
0.00035563214
0.00033037157
0.00013597172
2.1541881e-005
-9.2944784e-006
5.4373807e-005
0.00014358927
0.00015935414
8.9133287e-006
-0.00013552431
-9.5613686e-005
-3.2557268e-005
5.6303921e-005
0.00023912054
0.00027949538
0.00019338414
6.7377144e-005
2.9812916e-005
0.00024020052
0.00023305415
-0.00014786677
-0.00028157032
-2.2553046e-005
0.00038953186
0.00041039585
1.2557943e-005
-0.00015785909
-7.7173393e-005
-2.9987156e-005
9.8865358e-005
0.0003362718
0.00031391525
0.00012551416
1.7428505e-005
-1.067546e-005
5.2341324e-005
0.00014268653
0.00016070507
1.0834463e-005
-0.00013894022
-9.7745866e-005
-2.7245572e-005
6.1055144e-005
0.0002362206
0.00026761774
0.00018481161
7.143469e-005
3.1309268e-005
0.00023500398
0.00023132532
-0.00014992656
-0.0002874997
-2.8849747e-005
0.0003879733
0.00041566058
1.3520155e-005
-0.00016366734
-8.1964191e-005
-3.7406617e-005
8.6672717e-005
0.00031175239
0.00028652042
0.00010313068
1.0032341e-005
-9.332693e-006
5.018942e-005
0.00014445862
0.00016517466
1.5534517e-005
-0.00014342634
-0.00010436813
-2.109717e-005
7.2640149e-005
0.00023939439
0.00025207627
0.00017040978
7.8271527e-005
3.7025065e-005
0.00022652043
0.00022581172
-0.00014311273
-0.00028968715
-3.5359089e-005
0.00038753675
0.00043504814
2.5440814e-005
-0.00016798005
-8.8931608e-005
-3.8285039e-005
8.220605e-005
0.00029491618
0.00026407019
8.1913534e-005
2.570565e-007
-1.2480439e-005
4.7206026e-005
0.00014917973
0.00017331349
1.6803054e-005
-0.00014656669
-0.00011569447
-1.8437097e-005
8.8270056e-005
0.00025528662
0.00023961684
0.00014959893
8.3473395e-005
4.9087578e-005
0.00021614583
0.0002145565
-0.00012108092
-0.00028706743
-5.1179112e-005
0.00037533293
0.00046663787
5.0248527e-005
-0.00016842606
-9.50559e-005
-4.0103718e-005
7.5398934e-005
0.00028217914
0.00024840367
7.4988678e-005
-1.1471345e-006
-1.4322615e-005
4.4363309e-005
0.00015610597
0.0001847001
2.2393698e-005
-0.00014665256
-0.00012888606
-2.5020583e-005
0.00010267497
0.00027805355
0.00024036433
0.00012738701
7.9453182e-005
6.1801383e-005
0.00020319267
0.00019889009
-0.00010456417
-0.00029212554
-8.0040857e-005
0.00034823916
0.00048839488
8.9089473e-005
-0.00014733075
-0.00010609535
-5.2492444e-005
6.5154947e-005
0.00025550449
0.00023146707
7.5490896e-005
2.3556023e-006
-1.1780578e-005
4.1945668e-005
0.00016253357
0.00019760528
3.1610849e-005
-0.00014160149
-0.00013996097
-4.459826e-005
0.0001050697
0.00029953831
0.00024129852
0.00011544365
7.0002972e-005
6.5745206e-005
0.00018189195
0.00017921961
-0.00010402276
-0.00030002893
-0.00012633438
0.00030026912
0.00048362023
0.00013857092
-0.00010550119
-0.00010585125
-7.1178309e-005
5.5640107e-005
0.00024150231
0.00021498203
7.3521318e-005
7.5865389e-006
-1.219257e-006
4.1572351e-005
0.00016643814
0.00020807719
3.857476e-005
-0.00013101161
-0.0001502225
-8.0187211e-005
8.7174617e-005
0.0003068183
0.00023944715
0.00011566327
6.584464e-005
6.5384392e-005
0.00015580672
0.00015892974
-0.00012356721
-0.00028195683
-0.00017971418
0.00022597967
0.0004384818
0.00018340899
-4.5509133e-005
-8.7343685e-005
-8.8220224e-005
5.0281529e-005
0.00023375886
0.00020199314
6.9635563e-005
2.4476352e-005
1.7019526e-005
4.4132305e-005
0.00017029031
0.00021615315
4.0512338e-005
-0.00013117608
-0.00017133123
-0.00012910693
5.435514e-005
0.00029102713
0.00022419511
0.00012238446
6.7659065e-005
6.5631666e-005
0.00013717641
0.00014098731
-7.9308129e-005
-0.00022783298
-0.00018524589
0.00013372339
0.00036492322
0.00019612743
5.934142e-006
-6.4435211e-005
-9.5324154e-005
5.0154317e-005
0.00022091115
0.00019212205
6.3261885e-005
4.0830039e-005
3.0476076e-005
4.5482943e-005
0.00017499479
0.00022982087
4.5075617e-005
-0.00014859432
-0.00020335805
-0.00016460191
3.7799305e-005
0.00025953957
0.00019638974
0.00012274611
6.9267053e-005
6.4597676e-005
0.00012019588
0.00012295329
-4.5224932e-005
-0.00015173077
-0.00013051221
7.2228935e-005
0.0002924304
0.00018187674
3.8556981e-005
-4.2685739e-005
-9.9177929e-005
5.6244399e-005
0.00020370886
0.00018236225
5.7552978e-005
4.107826e-005
2.834811e-005
4.2279596e-005
0.00017346577
0.00024658743
5.7210948e-005
-0.00016479061
-0.00021300834
-0.00016558017
5.0426084e-005
0.00023826196
0.00016566281
0.00010900541
6.1690613e-005
5.1138909e-005
9.3664709e-005
0.00010236922
-2.1615798e-005
-0.00010564491
-6.4864773e-005
0.00011604353
0.00023548687
0.00015379613
5.3453673e-005
-1.4064907e-005
-5.6781923e-005
6.291829e-005
0.00018338911
0.00017043283
5.4712044e-005
3.7593683e-005
2.7586182e-005
4.0171812e-005
0.00016822384
0.0002482773
6.7299637e-005
-0.00010368004
-0.00018996979
-0.0001422646
4.9109228e-005
0.00020757575
0.00012884634
8.8267846e-005
5.5229798e-005
4.2941959e-005
6.5926176e-005
7.8501526e-005
-1.1228068e-005
-8.5425468e-005
-3.8474443e-005
0.00010171103
0.00019426428
0.0001247898
4.9993177e-005
-6.8111225e-006
-2.6941637e-005
6.1651551e-005
0.00015725079
0.00015430735
5.3603914e-005
2.7773802e-005
3.3022579e-005
5.2299812e-005
0.00016766851
0.00020462482
6.3493645e-005
-0.00013074318
-0.00016147775
-9.7650188e-005
4.0113653e-005
0.00016272108
0.00010110215
6.6249994e-005
5.3969574e-005
4.36868e-005
5.295901e-005
6.42948e-005
-1.0493024e-006
-7.7700129e-005
-5.3140795e-005
7.6864562e-005
0.00015456272
9.3571206e-005
4.4013361e-005
-1.2104856e-005
-1.6270834e-005
5.903053e-005
0.00013184721
0.00013495046
5.1560439e-005
1.9231354e-005
3.2224536e-005
5.5173e-005
0.00016091433
0.00020155907
5.358601e-005
-0.00017421212
-0.0001673566
-5.0264475e-005
3.4402672e-005
0.00011718068
8.5022763e-005
4.8361755e-005
5.4346285e-005
4.9492814e-005
5.12001e-005
5.9821992e-005
8.2511205e-006
-6.706845e-005
-5.0710021e-005
5.1969496e-005
0.00011555582
7.0151129e-005
4.2850986e-005
-1.5991775e-005
-1.7080952e-005
6.0175683e-005
0.00011957412
0.00011727377
4.516713e-005
1.5827102e-005
2.4494075e-005
4.3775492e-005
0.00014410346
0.00020273412
5.258688e-005
-0.00021102627
-0.00020500497
-2.6488048e-005
3.0797026e-005
9.0166246e-005
7.8329475e-005
3.7397274e-005
5.0700283e-005
6.030839e-005
5.8999883e-005
6.098037e-005
1.106804e-005
-6.0289758e-005
-4.3947346e-005
3.9130224e-005
8.8700333e-005
7.2849867e-005
2.4691383e-005
-2.2061281e-005
-2.2747638e-005
5.9217469e-005
0.00011723675
0.00010685581
3.9755593e-005
1.69393e-005
1.6693318e-005
2.4194337e-005
0.00012617451
0.00020081614
5.9293382e-005
-0.00023417732
-0.00024925367
-4.2877521e-005
1.7118522e-005
7.1254235e-005
7.6517638e-005
4.1378795e-005
4.1288362e-005
6.205808e-005
6.7726028e-005
6.0211272e-005
1.2549221e-005
-5.4709417e-005
-4.1490018e-005
3.410467e-005
7.3042826e-005
6.1232647e-005
1.1584228e-005
-3.0431014e-005
-9.0197275e-006
5.4566302e-005
0.00010971804
0.00010134495
4.1261828e-005
2.5253171e-005
1.264962e-005
3.0206725e-006
0.00010589325
0.00019313376
4.8657104e-005
-0.00024119583
-0.00027883927
-9.614742e-005
-1.281321e-005
5.1071955e-005
8.415532e-005
5.6818788e-005
2.794279e-005
5.4741659e-005
7.1977097e-005
6.0389493e-005
1.165064e-005
-4.937829e-005
-4.5122142e-005
2.4341448e-005
5.8879937e-005
4.8070255e-005
-3.1169009e-006
-4.4830075e-005
-7.6334929e-006
4.6913212e-005
9.7135377e-005
9.099638e-005
3.4660862e-005
2.9241887e-005
1.9882497e-005
-2.8612799e-006
8.3997496e-005
0.00016897172
3.6858916e-005
-0.0002191828
-0.00028196661
-0.00015408335
-4.919291e-005
2.9454436e-005
8.5300596e-005
6.2334695e-005
1.5919104e-005
3.5652745e-005
6.8156682e-005
6.4960838e-005
1.4203904e-005
-4.3788642e-005
-5.1817863e-005
7.208207e-006
4.3271963e-005
3.622387e-005
-1.3509154e-005
-6.7614659e-005
-1.4868018e-005
3.4037279e-005
7.9105701e-005
7.8875235e-005
3.6642046e-005
3.7280592e-005
2.9597522e-005
-9.9734356e-007
6.3184995e-005
0.00013600695
2.7317954e-005
-0.00016997426
-0.0002452807
-0.00016477732
-7.4651683e-005
8.1955284e-006
8.0801269e-005
7.1296359e-005
1.0029466e-005
1.0272343e-005
5.5395704e-005
6.9042467e-005
2.0451474e-005
-3.7398147e-005
-5.0673525e-005
-9.1133696e-006
2.6680753e-005
2.923239e-005
-3.38882e-006
-5.9791292e-005
-1.9723967e-005
2.8136568e-005
6.8185406e-005
7.0919161e-005
3.7315538e-005
4.2805872e-005
4.1431108e-005
1.1939907e-005
4.4039854e-005
0.00011090915
4.0247109e-005
-9.4367628e-005
-0.00017097221
-0.00014062231
-7.5602926e-005
-2.1740773e-006
7.6112733e-005
8.6756942e-005
2.291883e-005
-4.590863e-006
4.0724193e-005
6.7472432e-005
2.5581141e-005
-3.3695812e-005
-4.1047146e-005
-1.9894607e-005
9.1070277e-006
1.9741389e-005
-4.9839435e-006
-3.9013001e-005
-1.8866827e-005
2.3512072e-005
5.6814287e-005
6.4392036e-005
4.1299155e-005
4.8709737e-005
4.8867416e-005
2.0526731e-005
4.4288532e-005
9.1954049e-005
3.9224545e-005
-6.6313654e-005
-0.00012900961
-0.00011836654
-6.2076547e-005
-1.1854691e-006
6.4302406e-005
8.7534858e-005
3.5121652e-005
-1.3922756e-005
2.6020882e-005
5.9298673e-005
2.5847123e-005
-2.4759706e-005
-4.374139e-005
-2.074795e-005
-5.9122006e-006
9.1260166e-006
-1.1139191e-005
-3.0993899e-005
-1.891059e-005
1.9458621e-005
4.0611889e-005
4.4412792e-005
4.2207203e-005
5.9389073e-005
6.1242454e-005
3.4178525e-005
4.5811671e-005
7.1986072e-005
3.0520752e-005
-5.9378591e-005
-0.00010113262
-0.00010474083
-5.736372e-005
2.0751554e-006
5.9789318e-005
8.5669197e-005
3.4108669e-005
-2.2280938e-005
9.7344239e-006
4.5804661e-005
2.0817182e-005
-1.5256333e-005
-3.1181945e-005
-2.1417537e-005
-1.5155696e-005
1.8570585e-007
-1.4752632e-005
-3.5991331e-005
-2.553539e-005
1.2151478e-005
3.5040402e-005
3.9217295e-005
5.3144874e-005
7.8163691e-005
7.1632508e-005
5.6012324e-005
5.2730016e-005
5.7245685e-005
2.9255312e-005
-2.4549322e-005
-5.7123773e-005
-7.8596696e-005
-5.3098563e-005
9.9586445e-008
5.455249e-005
9.0444199e-005
5.4643216e-005
-2.0628249e-005
-2.720178e-006
3.5112912e-005
1.8622662e-005
-9.5034484e-006
-2.252784e-005
-1.8393622e-005
-1.8373837e-005
-7.7269213e-006
-1.0046784e-005
-2.8297035e-005
-3.7739559e-005
1.301555e-005
4.3460354e-005
4.5038283e-005
5.9118961e-005
8.6673471e-005
7.3388823e-005
5.5917468e-005
6.5626103e-005
7.1101569e-005
5.4526309e-005
3.3253632e-005
-1.1564068e-005
-4.7295736e-005
-4.5489392e-005
-3.4699747e-006
4.5595174e-005
8.8904286e-005
7.5063623e-005
-7.9506657e-006
-9.5940255e-006
2.5423722e-005
2.0440323e-005
-2.1731607e-006
-1.5706822e-005
-1.8024936e-005
-1.8018939e-005
-1.5555203e-005
-5.4793079e-006
-1.1927718e-005
-3.4014049e-005
1.4063714e-005
4.9573021e-005
5.2703315e-005
4.6837481e-005
6.7078792e-005
6.6665219e-005
5.3599351e-005
6.5411799e-005
6.7995241e-005
5.3803933e-005
5.4264916e-005
2.6779174e-005
-1.1977782e-005
-2.1823437e-005
-1.5073979e-006
3.911006e-005
7.8935341e-005
8.0223133e-005
1.3765874e-005
-1.8828885e-006
2.6627664e-005
3.5971007e-005
1.2913673e-005
-9.0103413e-006
-1.929634e-005
-1.8539376e-005
-1.7814644e-005
-8.0679848e-006
5.1796765e-006
-7.7607939e-006
1.924536e-005
4.3653237e-005
4.9112844e-005
4.8549394e-005
6.4200138e-005
6.773245e-005
6.0869681e-005
7.296434e-005
6.991436e-005
4.6881925e-005
1.5278829e-005
2.2622333e-005
1.0541931e-005
-8.882144e-007
5.2529116e-006
3.70506e-005
6.4691333e-005
7.6823208e-005
4.817376e-005
2.4839395e-005
4.0405529e-005
3.2498098e-005
1.6663887e-005
-5.4955062e-006
-2.218107e-005
-2.4987759e-005
-2.1617368e-005
-1.134629e-005
-3.386614e-006
3.5423901e-006
3.2372568e-005
4.960815e-005
4.7909329e-005
4.8739895e-005
6.0665173e-005
6.3237814e-005
5.7101202e-005
7.6217146e-005
7.0438322e-005
5.0509043e-005
2.2907452e-005
2.298338e-005
1.7444942e-005
4.7732039e-006
1.220586e-005
4.1792978e-005
6.3101177e-005
7.35819e-005
5.3612199e-005
3.7986205e-005
4.6206501e-005
4.0529599e-005
3.0415954e-005
1.3256321e-005
-1.0165651e-005
-2.5179963e-005
-2.5482567e-005
-1.4436533e-005
-6.1900618e-007
1.1446569e-005
4.264955e-005
6.0873714e-005
5.3302162e-005
4.9818138e-005
6.3785512e-005
6.6024355e-005
5.9556818e-005
6.7849033e-005
5.9345076e-005
4.6402552e-005
4.1847805e-005
3.6323524e-005
2.8675086e-005
1.5514476e-005
1.5464637e-005
3.9942639e-005
6.1196541e-005
6.9790919e-005
5.7384563e-005
4.4655961e-005
5.0519176e-005
4.2283203e-005
2.0074892e-005
8.3038899e-006
-7.8070062e-006
-2.3333446e-005
-2.3283567e-005
-1.3188567e-005
1.6244249e-006
1.6186065e-005
4.9948125e-005
7.3331235e-005
6.2390712e-005
5.3761687e-005
6.5000155e-005
6.6330348e-005
5.9790041e-005
6.3076966e-005
5.862439e-005
4.8040496e-005
4.6523871e-005