/*--------------------------------*- C++ -*----------------------------------*\
| =========                 |                                                 |
| \\      /  F ield         | OpenFOAM: The Open Source CFD Toolbox           |
|  \\    /   O peration     | Version:  5.x                                   |
|   \\  /    A nd           | Web:      www.OpenFOAM.org                      |
|    \\/     M anipulation  |                                                 |
\*---------------------------------------------------------------------------*/
/*   Windows 32 and 64 bit porting by blueCAPE: http://www.bluecape.com.pt   *\
|  Based on Windows porting (2.0.x v4) by Symscape: http://www.symscape.com   |
\*---------------------------------------------------------------------------*/
FoamFile
{
    version     2.0;
    format      ascii;
    class       volScalarField;
    location    "6000.00000000";
    object      pMean;
}
// * * * * * * * * * * * * * * * * * * * * * * * * * * * * * * * * * * * * * //

dimensions      [0 2 -2 0 0 0 0];

internalField   nonuniform List<scalar> 
51000
(
1.8129208e-005
1.8051958e-005
1.792528e-005
1.7941245e-005
1.8139989e-005
1.841728e-005
1.8612404e-005
1.8734825e-005
1.8739824e-005
1.8614309e-005
1.8516005e-005
1.8433134e-005
1.8375556e-005
1.8329463e-005
1.8237806e-005
1.8136699e-005
1.7913106e-005
1.7579121e-005
1.7319511e-005
1.7198622e-005
1.7118679e-005
1.6971631e-005
1.6838593e-005
1.6919416e-005
1.7102402e-005
1.7281068e-005
1.7515055e-005
1.7704144e-005
1.7877396e-005
1.8035065e-005
1.7955377e-005
1.7881833e-005
1.77588e-005
1.7779931e-005
1.7982455e-005
1.826101e-005
1.8458965e-005
1.8587534e-005
1.8597322e-005
1.8476008e-005
1.8379761e-005
1.8294142e-005
1.8230903e-005
1.818054e-005
1.8083202e-005
1.7974526e-005
1.7741396e-005
1.7396843e-005
1.7134505e-005
1.7016683e-005
1.6938147e-005
1.6789871e-005
1.665509e-005
1.6731872e-005
1.6910435e-005
1.7086603e-005
1.7319317e-005
1.7509094e-005
1.7688566e-005
1.7854486e-005
1.7077841e-005
1.702724e-005
1.6923725e-005
1.6964844e-005
1.7178042e-005
1.7454769e-005
1.7645182e-005
1.7768398e-005
1.7779631e-005
1.7673695e-005
1.7591089e-005
1.7502618e-005
1.7428904e-005
1.737523e-005
1.728257e-005
1.717421e-005
1.6928471e-005
1.6569833e-005
1.6298766e-005
1.6178572e-005
1.6101727e-005
1.5957057e-005
1.5826544e-005
1.5906176e-005
1.6080513e-005
1.6241141e-005
1.6448761e-005
1.6618454e-005
1.6787231e-005
1.6958784e-005
1.5128894e-005
1.5120541e-005
1.5051348e-005
1.5107572e-005
1.5327018e-005
1.5603316e-005
1.5784091e-005
1.5890439e-005
1.5901069e-005
1.5815774e-005
1.5752889e-005
1.5648156e-005
1.5543652e-005
1.5496007e-005
1.5430464e-005
1.5333423e-005
1.5083488e-005
1.470846e-005
1.4424466e-005
1.4308113e-005
1.4241519e-005
1.4106337e-005
1.3986928e-005
1.4073861e-005
1.422481e-005
1.4338469e-005
1.4495372e-005
1.4626413e-005
1.4778178e-005
1.4968471e-005
1.2085006e-005
1.2123746e-005
1.2091201e-005
1.2153695e-005
1.2355835e-005
1.2633412e-005
1.2836689e-005
1.2945044e-005
1.2942084e-005
1.2847817e-005
1.2773958e-005
1.2643114e-005
1.2518898e-005
1.2497862e-005
1.2467797e-005
1.238222e-005
1.2132951e-005
1.1748932e-005
1.146143e-005
1.1355692e-005
1.1287447e-005
1.1141977e-005
1.1034443e-005
1.1114983e-005
1.1211654e-005
1.1247479e-005
1.1360824e-005
1.1486283e-005
1.1656939e-005
1.1875129e-005
8.1172882e-006
8.204295e-006
8.2373422e-006
8.3140129e-006
8.4842681e-006
8.7575696e-006
9.0068127e-006
9.1340586e-006
9.0922532e-006
8.9507266e-006
8.8592913e-006
8.7508263e-006
8.669692e-006
8.688009e-006
8.6768306e-006
8.5846028e-006
8.3399295e-006
7.9632364e-006
7.6914053e-006
7.5963206e-006
7.4847316e-006
7.2862969e-006
7.1526192e-006
7.1826391e-006
7.1963821e-006
7.1510873e-006
7.2389406e-006
7.4120179e-006
7.6480044e-006
7.9004826e-006
3.49633e-006
3.6506372e-006
3.7730435e-006
3.8899579e-006
4.0401197e-006
4.2842276e-006
4.5150917e-006
4.627159e-006
4.5404014e-006
4.3775362e-006
4.3512451e-006
4.3453064e-006
4.3384809e-006
4.3909003e-006
4.3835545e-006
4.2541237e-006
3.9924241e-006
3.6286481e-006
3.3972652e-006
3.3178772e-006
3.1239026e-006
2.8163587e-006
2.6259785e-006
2.5966273e-006
2.5384119e-006
2.422691e-006
2.4737295e-006
2.707261e-006
3.017942e-006
3.2797561e-006
-1.3512655e-006
-1.1101954e-006
-9.0327971e-007
-7.2850342e-007
-5.9472895e-007
-4.3819556e-007
-3.2433719e-007
-3.0522186e-007
-4.0594621e-007
-5.1233475e-007
-4.3532247e-007
-3.3317374e-007
-2.7764557e-007
-1.7621429e-007
-1.8012089e-007
-3.5060613e-007
-6.5446759e-007
-1.0132545e-006
-1.2148561e-006
-1.2989702e-006
-1.584093e-006
-1.9903051e-006
-2.2325541e-006
-2.2728207e-006
-2.322543e-006
-2.5065095e-006
-2.5423464e-006
-2.3115838e-006
-1.9580511e-006
-1.635188e-006
-6.0583695e-006
-5.7317813e-006
-5.4553126e-006
-5.2463647e-006
-5.1333566e-006
-5.0777028e-006
-5.1067483e-006
-5.202471e-006
-5.3209764e-006
-5.3669248e-006
-5.2036819e-006
-5.0128563e-006
-4.8598092e-006
-4.6936384e-006
-4.6828056e-006
-4.917866e-006
-5.3069678e-006
-5.690891e-006
-5.8992558e-006
-6.0373291e-006
-6.3666435e-006
-6.80204e-006
-7.0551738e-006
-7.0404374e-006
-7.0296097e-006
-7.2693988e-006
-7.4238624e-006
-7.2827547e-006
-6.9305357e-006
-6.4924281e-006
-1.0461598e-005
-1.0042176e-005
-9.7200331e-006
-9.4689307e-006
-9.3653282e-006
-9.3448161e-006
-9.3821649e-006
-9.5196545e-006
-9.7162218e-006
-9.8106383e-006
-9.6049847e-006
-9.2957468e-006
-9.0064504e-006
-8.7393374e-006
-8.7501722e-006
-9.1030233e-006
-9.6384241e-006
-1.0080416e-005
-1.0302802e-005
-1.0456578e-005
-1.0796061e-005
-1.1244695e-005
-1.1493957e-005
-1.14157e-005
-1.1318735e-005
-1.1552454e-005
-1.1830613e-005
-1.1848133e-005
-1.156583e-005
-1.104373e-005
-1.4503244e-005
-1.3992888e-005
-1.3593896e-005
-1.3292191e-005
-1.3165248e-005
-1.3086971e-005
-1.3002796e-005
-1.3076612e-005
-1.3325823e-005
-1.3501592e-005
-1.3306824e-005
-1.2919937e-005
-1.2532951e-005
-1.2199099e-005
-1.2241814e-005
-1.2711047e-005
-1.3367919e-005
-1.3887544e-005
-1.4101888e-005
-1.4210671e-005
-1.4528493e-005
-1.4987168e-005
-1.5268524e-005
-1.5210562e-005
-1.5098645e-005
-1.530265e-005
-1.5637515e-005
-1.5792162e-005
-1.5603639e-005
-1.5122642e-005
-1.7928157e-005
-1.7451537e-005
-1.7072217e-005
-1.676301e-005
-1.6595209e-005
-1.6439805e-005
-1.6218324e-005
-1.6115033e-005
-1.6270968e-005
-1.6444134e-005
-1.6311249e-005
-1.5959955e-005
-1.5525964e-005
-1.5135642e-005
-1.51562e-005
-1.565144e-005
-1.6309449e-005
-1.6802761e-005
-1.7011987e-005
-1.7114784e-005
-1.7426529e-005
-1.7932361e-005
-1.8310253e-005
-1.8387498e-005
-1.8397371e-005
-1.8622492e-005
-1.8903369e-005
-1.9039506e-005
-1.8909998e-005
-1.8503307e-005
-2.055785e-005
-2.0229414e-005
-2.0084139e-005
-1.995716e-005
-1.9843383e-005
-1.9656681e-005
-1.9282732e-005
-1.8979943e-005
-1.8982186e-005
-1.909991e-005
-1.8957466e-005
-1.8543469e-005
-1.8029838e-005
-1.7570334e-005
-1.7503925e-005
-1.7903562e-005
-1.8445773e-005
-1.8811295e-005
-1.896508e-005
-1.909238e-005
-1.9484431e-005
-2.0091061e-005
-2.0535015e-005
-2.0691401e-005
-2.0821803e-005
-2.1189183e-005
-2.1508228e-005
-2.158981e-005
-2.1424778e-005
-2.1047594e-005
-2.2405344e-005
-2.2345212e-005
-2.255516e-005
-2.2743e-005
-2.2795411e-005
-2.2652922e-005
-2.2136036e-005
-2.1577064e-005
-2.1431739e-005
-2.1485455e-005
-2.1222975e-005
-2.065703e-005
-2.0041539e-005
-1.9550665e-005
-1.9424512e-005
-1.9679931e-005
-2.0011312e-005
-2.0186423e-005
-2.0203931e-005
-2.0282898e-005
-2.0754268e-005
-2.1457861e-005
-2.1930322e-005
-2.208612e-005
-2.228016e-005
-2.2771925e-005
-2.3215773e-005
-2.3308778e-005
-2.3120126e-005
-2.2753054e-005
-2.3628737e-005
-2.382051e-005
-2.4262797e-005
-2.4662752e-005
-2.4901654e-005
-2.4863834e-005
-2.4316925e-005
-2.3596602e-005
-2.3242446e-005
-2.319845e-005
-2.2923601e-005
-2.2361448e-005
-2.1774848e-005
-2.1298642e-005
-2.1052627e-005
-2.1062643e-005
-2.111184e-005
-2.109311e-005
-2.1050153e-005
-2.11221e-005
-2.155716e-005
-2.2246158e-005
-2.2759634e-005
-2.2953899e-005
-2.3182782e-005
-2.3715338e-005
-2.4164442e-005
-2.4258902e-005
-2.4065849e-005
-2.3769338e-005
-2.4504643e-005
-2.4778646e-005
-2.5151588e-005
-2.5482215e-005
-2.5692584e-005
-2.5724468e-005
-2.5343997e-005
-2.472455e-005
-2.4349697e-005
-2.4275008e-005
-2.4135904e-005
-2.3758529e-005
-2.3326943e-005
-2.2863054e-005
-2.2414991e-005
-2.2087061e-005
-2.1895221e-005
-2.1803772e-005
-2.1822271e-005
-2.196661e-005
-2.2314314e-005
-2.2847751e-005
-2.3306679e-005
-2.3573373e-005
-2.3845105e-005
-2.4264771e-005
-2.4592603e-005
-2.4625438e-005
-2.4478487e-005
-2.4392835e-005
-2.4875313e-005
-2.5127472e-005
-2.5338694e-005
-2.5453906e-005
-2.5494796e-005
-2.5515862e-005
-2.5320636e-005
-2.4910277e-005
-2.4589088e-005
-2.4520914e-005
-2.4536813e-005
-2.4441124e-005
-2.422467e-005
-2.3890772e-005
-2.3377464e-005
-2.2826996e-005
-2.2451687e-005
-2.2309708e-005
-2.2400942e-005
-2.2621145e-005
-2.2904823e-005
-2.322545e-005
-2.3541626e-005
-2.3843806e-005
-2.4110495e-005
-2.438096e-005
-2.4573004e-005
-2.458336e-005
-2.4533235e-005
-2.4640296e-005
-2.4670461e-005
-2.4776977e-005
-2.4881471e-005
-2.494428e-005
-2.4917516e-005
-2.4897124e-005
-2.4782359e-005
-2.4560889e-005
-2.4331046e-005
-2.4208806e-005
-2.4227118e-005
-2.4298156e-005
-2.4316754e-005
-2.4166261e-005
-2.3768436e-005
-2.3246113e-005
-2.2791528e-005
-2.2559663e-005
-2.2607107e-005
-2.2828842e-005
-2.3047043e-005
-2.3177103e-005
-2.3334366e-005
-2.3591888e-005
-2.3870572e-005
-2.409191e-005
-2.4239174e-005
-2.4285981e-005
-2.4353818e-005
-2.4514274e-005
-2.4165154e-005
-2.4119326e-005
-2.4116543e-005
-2.4116622e-005
-2.4123133e-005
-2.4157194e-005
-2.4110308e-005
-2.3963679e-005
-2.3744548e-005
-2.3546721e-005
-2.3485777e-005
-2.3592714e-005
-2.373215e-005
-2.3750383e-005
-2.3584828e-005
-2.3267287e-005
-2.2921115e-005
-2.2691074e-005
-2.2679234e-005
-2.2779712e-005
-2.2825195e-005
-2.2834509e-005
-2.290509e-005
-2.3109985e-005
-2.3335454e-005
-2.3536654e-005
-2.3703304e-005
-2.3845028e-005
-2.3985054e-005
-2.4129433e-005
-2.3180524e-005
-2.3023713e-005
-2.2959861e-005
-2.2987529e-005
-2.3094927e-005
-2.3269045e-005
-2.3415839e-005
-2.3372982e-005
-2.3154003e-005
-2.2920019e-005
-2.2826514e-005
-2.2927247e-005
-2.3069426e-005
-2.309721e-005
-2.3002666e-005
-2.2870012e-005
-2.2715902e-005
-2.2601108e-005
-2.2565724e-005
-2.2560048e-005
-2.248312e-005
-2.2354161e-005
-2.23372e-005
-2.2507502e-005
-2.2739431e-005
-2.2928857e-005
-2.3097074e-005
-2.3241512e-005
-2.3324625e-005
-2.3300565e-005
-2.2233521e-005
-2.2014005e-005
-2.1924089e-005
-2.1995736e-005
-2.2181425e-005
-2.2414846e-005
-2.2636926e-005
-2.2723999e-005
-2.2632688e-005
-2.2474936e-005
-2.239445e-005
-2.2420659e-005
-2.2447811e-005
-2.2414241e-005
-2.23259e-005
-2.2221561e-005
-2.2164174e-005
-2.2112064e-005
-2.209326e-005
-2.20609e-005
-2.1939138e-005
-2.1821041e-005
-2.1758238e-005
-2.1855848e-005
-2.2058119e-005
-2.2244324e-005
-2.2399706e-005
-2.2497742e-005
-2.2518098e-005
-2.2427246e-005
-2.1424428e-005
-2.1230312e-005
-2.1103003e-005
-2.1120855e-005
-2.1263009e-005
-2.139009e-005
-2.1479987e-005
-2.1562058e-005
-2.1600322e-005
-2.1541454e-005
-2.1444384e-005
-2.1389705e-005
-2.1372258e-005
-2.1365747e-005
-2.1376517e-005
-2.1386093e-005
-2.1389613e-005
-2.1381328e-005
-2.1389643e-005
-2.1396047e-005
-2.1366314e-005
-2.1306608e-005
-2.1236204e-005
-2.1260341e-005
-2.1378197e-005
-2.1535822e-005
-2.1649856e-005
-2.1712384e-005
-2.1681944e-005
-2.1590361e-005
-2.0387735e-005
-2.0226554e-005
-2.0066059e-005
-1.9985569e-005
-1.9988609e-005
-2.0009237e-005
-2.0020847e-005
-2.0029642e-005
-2.0042226e-005
-2.0032922e-005
-2.0032116e-005
-2.0076927e-005
-2.0142365e-005
-2.0212633e-005
-2.0293258e-005
-2.0345502e-005
-2.0396317e-005
-2.0450913e-005
-2.0499902e-005
-2.056668e-005
-2.0598938e-005
-2.0584929e-005
-2.0558916e-005
-2.0545078e-005
-2.0577618e-005
-2.0651719e-005
-2.0716543e-005
-2.0714701e-005
-2.0638474e-005
-2.0521479e-005
-1.8827286e-005
-1.8667561e-005
-1.8512957e-005
-1.8411481e-005
-1.8364895e-005
-1.8352177e-005
-1.834923e-005
-1.8334451e-005
-1.8322174e-005
-1.8302385e-005
-1.830709e-005
-1.8380898e-005
-1.8510509e-005
-1.8650706e-005
-1.879911e-005
-1.8961968e-005
-1.911785e-005
-1.9258601e-005
-1.9374824e-005
-1.9458051e-005
-1.9462593e-005
-1.936631e-005
-1.921915e-005
-1.9116684e-005
-1.9105884e-005
-1.9139917e-005
-1.9157725e-005
-1.9144484e-005
-1.907276e-005
-1.8958579e-005
-1.6724685e-005
-1.6588043e-005
-1.6502126e-005
-1.6460171e-005
-1.6454875e-005
-1.6480002e-005
-1.6504494e-005
-1.6517397e-005
-1.6494999e-005
-1.64198e-005
-1.6345676e-005
-1.6338704e-005
-1.6410223e-005
-1.6534968e-005
-1.6685517e-005
-1.6868299e-005
-1.7054211e-005
-1.7240587e-005
-1.7425271e-005
-1.7576589e-005
-1.7646395e-005
-1.7594518e-005
-1.7462507e-005
-1.7330628e-005
-1.7236508e-005
-1.7173546e-005
-1.712916e-005
-1.7084565e-005
-1.7000221e-005
-1.6872106e-005
-1.4675629e-005
-1.4532129e-005
-1.4460482e-005
-1.4440655e-005
-1.4464336e-005
-1.452216e-005
-1.4603046e-005
-1.4680325e-005
-1.470967e-005
-1.4653297e-005
-1.4572246e-005
-1.4523775e-005
-1.4532988e-005
-1.4584301e-005
-1.4675579e-005
-1.4796269e-005
-1.4907577e-005
-1.5023194e-005
-1.515709e-005
-1.532466e-005
-1.5488158e-005
-1.5598392e-005
-1.5630757e-005
-1.5597134e-005
-1.5539066e-005
-1.5456814e-005
-1.5343458e-005
-1.5210164e-005
-1.5053592e-005
-1.486413e-005
-1.2589469e-005
-1.2425407e-005
-1.2344082e-005
-1.2317419e-005
-1.2304407e-005
-1.2309208e-005
-1.230653e-005
-1.232437e-005
-1.233965e-005
-1.2352207e-005
-1.2369277e-005
-1.2413713e-005
-1.2497658e-005
-1.2600484e-005
-1.2719549e-005
-1.2835236e-005
-1.2949345e-005
-1.3041035e-005
-1.3132878e-005
-1.3216773e-005
-1.3306349e-005
-1.338542e-005
-1.3421177e-005
-1.3406058e-005
-1.3353493e-005
-1.3290933e-005
-1.320853e-005
-1.3092926e-005
-1.2963168e-005
-1.2787501e-005
-1.0296269e-005
-1.0184427e-005
-1.0109083e-005
-1.0072002e-005
-1.0042629e-005
-9.9994981e-006
-9.9240749e-006
-9.8596549e-006
-9.8533175e-006
-9.8927359e-006
-9.9502142e-006
-1.0019591e-005
-1.0118356e-005
-1.0243274e-005
-1.0377767e-005
-1.0506284e-005
-1.0630847e-005
-1.0740214e-005
-1.0815705e-005
-1.0866284e-005
-1.0909084e-005
-1.0930078e-005
-1.0924347e-005
-1.0894902e-005
-1.0843155e-005
-1.0777105e-005
-1.071035e-005
-1.0623484e-005
-1.0526611e-005
-1.0420586e-005
-7.8511242e-006
-7.79325e-006
-7.7604675e-006
-7.751758e-006
-7.7402148e-006
-7.7184242e-006
-7.6786805e-006
-7.6512125e-006
-7.6664452e-006
-7.7083254e-006
-7.7713479e-006
-7.8471762e-006
-7.9333991e-006
-8.0376605e-006
-8.1533078e-006
-8.2784877e-006
-8.4104478e-006
-8.5182273e-006
-8.5891046e-006
-8.6032048e-006
-8.5651351e-006
-8.5245656e-006
-8.4775201e-006
-8.4364101e-006
-8.3872448e-006
-8.3077288e-006
-8.199982e-006
-8.0990075e-006
-8.0082134e-006
-7.9246222e-006
-5.5313788e-006
-5.4573233e-006
-5.3952842e-006
-5.3366923e-006
-5.2814212e-006
-5.2431903e-006
-5.2123501e-006
-5.1971818e-006
-5.2068891e-006
-5.2373515e-006
-5.2747108e-006
-5.3285452e-006
-5.3990582e-006
-5.4796918e-006
-5.5630586e-006
-5.6633454e-006
-5.7697994e-006
-5.8675439e-006
-5.9366842e-006
-5.9641664e-006
-5.9627467e-006
-5.9626308e-006
-5.961988e-006
-5.9649305e-006
-5.9698587e-006
-5.9595779e-006
-5.9049692e-006
-5.8196945e-006
-5.7194779e-006
-5.6194081e-006
-3.2844224e-006
-3.1992726e-006
-3.1141482e-006
-3.0312764e-006
-2.9696207e-006
-2.9231296e-006
-2.878452e-006
-2.8503868e-006
-2.8492693e-006
-2.8570056e-006
-2.8765129e-006
-2.9097688e-006
-2.9607581e-006
-3.0250932e-006
-3.0840612e-006
-3.1463421e-006
-3.2143997e-006
-3.2714562e-006
-3.313239e-006
-3.3366308e-006
-3.3596674e-006
-3.3891245e-006
-3.4223934e-006
-3.4592863e-006
-3.495686e-006
-3.5206676e-006
-3.5118685e-006
-3.4849833e-006
-3.4400329e-006
-3.3683119e-006
-1.0860441e-006
-1.0253238e-006
-9.6381363e-007
-9.1115884e-007
-8.6382989e-007
-8.3002556e-007
-8.0823746e-007
-7.9358348e-007
-7.9815575e-007
-8.1522427e-007
-8.4015902e-007
-8.7098095e-007
-9.0973796e-007
-9.5243289e-007
-9.9528272e-007
-1.0300399e-006
-1.0638613e-006
-1.1004758e-006
-1.1305043e-006
-1.1598639e-006
-1.1782402e-006
-1.1913329e-006
-1.1984314e-006
-1.1988764e-006
-1.2099509e-006
-1.224272e-006
-1.2249504e-006
-1.2092821e-006
-1.183512e-006
-1.1399914e-006
7.2293931e-007
7.5343609e-007
7.9276315e-007
8.4024437e-007
8.845079e-007
9.1405479e-007
9.2803706e-007
9.3208748e-007
9.3779433e-007
9.3981205e-007
9.3698429e-007
9.2879659e-007
9.1317425e-007
8.8502763e-007
8.6035231e-007
8.4086153e-007
8.2011568e-007
7.8618179e-007
7.566383e-007
7.3400622e-007
7.0932212e-007
6.8426799e-007
6.6668472e-007
6.5169423e-007
6.3572076e-007
6.2607484e-007
6.3007575e-007
6.4260402e-007
6.5731099e-007
6.8866352e-007
1.072743e-006
1.1022664e-006
1.1294592e-006
1.1657444e-006
1.1967221e-006
1.2159845e-006
1.2284661e-006
1.2410997e-006
1.2498268e-006
1.2557256e-006
1.2584049e-006
1.2520036e-006
1.2397195e-006
1.2292268e-006
1.2135694e-006
1.2046549e-006
1.190451e-006
1.1633346e-006
1.1371903e-006
1.1177306e-006
1.0946395e-006
1.0673168e-006
1.04785e-006
1.0344934e-006
1.0127473e-006
9.9611237e-007
1.0001507e-006
1.0084926e-006
1.0220724e-006
1.0421355e-006
1.8468614e-005
1.9136274e-005
1.9750997e-005
2.0197833e-005
2.0485163e-005
2.0776324e-005
2.1043253e-005
2.1054856e-005
2.0618404e-005
1.9826901e-005
1.9047561e-005
1.8355138e-005
1.7685009e-005
1.7110051e-005
1.669959e-005
1.6430899e-005
1.6286279e-005
1.6050547e-005
1.5827432e-005
1.5784859e-005
1.5736876e-005
1.5554996e-005
1.539642e-005
1.5344239e-005
1.5348562e-005
1.5563017e-005
1.5995969e-005
1.6553796e-005
1.718456e-005
1.7815152e-005
1.8255126e-005
1.8916315e-005
1.9525613e-005
1.9970963e-005
2.026192e-005
2.0555228e-005
2.0822697e-005
2.0837053e-005
2.0405344e-005
1.9624015e-005
1.8857769e-005
1.8171182e-005
1.7502332e-005
1.6928977e-005
1.6519402e-005
1.6249813e-005
1.6102105e-005
1.5862338e-005
1.5637648e-005
1.559546e-005
1.5549746e-005
1.5371673e-005
1.521802e-005
1.5171123e-005
1.5175811e-005
1.5385341e-005
1.5812882e-005
1.6364856e-005
1.698763e-005
1.7608729e-005
1.7393305e-005
1.8049816e-005
1.8645226e-005
1.9077846e-005
1.9367849e-005
1.9658239e-005
1.9914213e-005
1.9920322e-005
1.948619e-005
1.8714418e-005
1.7968917e-005
1.729726e-005
1.6628016e-005
1.605256e-005
1.5644041e-005
1.5371388e-005
1.5216812e-005
1.4968796e-005
1.4742155e-005
1.4699281e-005
1.465102e-005
1.4481468e-005
1.4344793e-005
1.4315322e-005
1.4335352e-005
1.4553396e-005
1.4980345e-005
1.5524812e-005
1.6139689e-005
1.6751721e-005
1.5511773e-005
1.6172408e-005
1.6737038e-005
1.7126074e-005
1.7400433e-005
1.7691172e-005
1.7937089e-005
1.7928234e-005
1.7476781e-005
1.6699071e-005
1.5978751e-005
1.5341951e-005
1.4694334e-005
1.4133173e-005
1.3723483e-005
1.344385e-005
1.3281598e-005
1.3036476e-005
1.2799078e-005
1.2718031e-005
1.2642802e-005
1.2478577e-005
1.236962e-005
1.2380547e-005
1.2443552e-005
1.2679118e-005
1.3118103e-005
1.3668474e-005
1.4266443e-005
1.4866125e-005
1.2492942e-005
1.3160098e-005
1.3688383e-005
1.4017776e-005
1.4260401e-005
1.456268e-005
1.48335e-005
1.484159e-005
1.4384737e-005
1.3567896e-005
1.2840165e-005
1.2247558e-005
1.1658826e-005
1.1137656e-005
1.073922e-005
1.0452946e-005
1.0321171e-005
1.0115119e-005
9.8481081e-006
9.6684412e-006
9.5158046e-006
9.3400855e-006
9.2577409e-006
9.3272071e-006
9.4372104e-006
9.6808013e-006
1.0119299e-005
1.066961e-005
1.1249339e-005
1.1837299e-005
8.5186958e-006
9.1887292e-006
9.7055102e-006
9.9915624e-006
1.0188988e-005
1.0490832e-005
1.0827622e-005
1.0921717e-005
1.0491637e-005
9.6199131e-006
8.847152e-006
8.2821682e-006
7.7592897e-006
7.2990383e-006
6.9469955e-006
6.7161803e-006
6.6425366e-006
6.4761298e-006
6.1693961e-006
5.8753765e-006
5.6243922e-006
5.399585e-006
5.310613e-006
5.4101612e-006
5.5434784e-006
5.7729363e-006
6.1749896e-006
6.7022464e-006
7.2724191e-006
7.8617892e-006
3.9657977e-006
4.6394012e-006
5.1655919e-006
5.4218545e-006
5.5356219e-006
5.7678776e-006
6.1444861e-006
6.3705365e-006
6.0428217e-006
5.1724006e-006
4.3694699e-006
3.8199232e-006
3.3375843e-006
2.9397279e-006
2.6899232e-006
2.5677661e-006
2.5543123e-006
2.3836743e-006
2.0405572e-006
1.6876023e-006
1.3838127e-006
1.1211535e-006
9.7986632e-007
1.0364655e-006
1.1595882e-006
1.34816e-006
1.6593426e-006
2.1234789e-006
2.6908906e-006
3.3098828e-006
-7.4583098e-007
-7.0521662e-008
4.5095496e-007
6.4685468e-007
6.2415553e-007
7.1012951e-007
1.046193e-006
1.3753129e-006
1.1905096e-006
4.1945508e-007
-3.4056042e-007
-8.7575011e-007
-1.3110445e-006
-1.6088426e-006
-1.7378774e-006
-1.7762072e-006
-1.7941846e-006
-1.988722e-006
-2.3300413e-006
-2.671511e-006
-2.9293515e-006
-3.1618493e-006
-3.3562714e-006
-3.3817352e-006
-3.3292751e-006
-3.2369144e-006
-3.0424179e-006
-2.6419027e-006
-2.0696715e-006
-1.414044e-006
-5.3303611e-006
-4.6706869e-006
-4.1913764e-006
-4.0862563e-006
-4.247929e-006
-4.3017418e-006
-4.0302014e-006
-3.6841193e-006
-3.7905411e-006
-4.4455388e-006
-5.1030097e-006
-5.5474035e-006
-5.8690443e-006
-6.0412145e-006
-6.0736566e-006
-6.0922649e-006
-6.1582409e-006
-6.3774504e-006
-6.7056841e-006
-6.9776904e-006
-7.1024477e-006
-7.2706862e-006
-7.5184699e-006
-7.6688244e-006
-7.7548411e-006
-7.7947936e-006
-7.7211853e-006
-7.3620762e-006
-6.7519698e-006
-6.0333405e-006
-9.6995271e-006
-9.0468602e-006
-8.6421034e-006
-8.6148412e-006
-8.8277778e-006
-8.912365e-006
-8.6676758e-006
-8.380692e-006
-8.5445466e-006
-9.1667397e-006
-9.7092685e-006
-1.002285e-005
-1.0184587e-005
-1.0203657e-005
-1.0118062e-005
-1.0098438e-005
-1.0208277e-005
-1.0442435e-005
-1.0725462e-005
-1.0930253e-005
-1.0964123e-005
-1.1085968e-005
-1.1398018e-005
-1.1698e-005
-1.1954147e-005
-1.2133036e-005
-1.2155279e-005
-1.1828871e-005
-1.1206689e-005
-1.0458809e-005
-1.3800347e-005
-1.3161021e-005
-1.280441e-005
-1.2782037e-005
-1.2942768e-005
-1.299881e-005
-1.282433e-005
-1.266515e-005
-1.2891917e-005
-1.3494625e-005
-1.3995422e-005
-1.4223895e-005
-1.4221486e-005
-1.4015525e-005
-1.3765899e-005
-1.3660081e-005
-1.3767479e-005
-1.3978462e-005
-1.4210675e-005
-1.4378528e-005
-1.4381059e-005
-1.4485175e-005
-1.4862482e-005
-1.5314403e-005
-1.5695719e-005
-1.5966298e-005
-1.6003384e-005
-1.5704568e-005
-1.5189398e-005
-1.4534233e-005
-1.7438197e-005
-1.6894857e-005
-1.654134e-005
-1.6448756e-005
-1.6539363e-005
-1.6643836e-005
-1.6599167e-005
-1.6527578e-005
-1.6730877e-005
-1.7247827e-005
-1.7699948e-005
-1.7866559e-005
-1.7680527e-005
-1.7247857e-005
-1.6829871e-005
-1.6653936e-005
-1.6807658e-005
-1.710443e-005
-1.7328551e-005
-1.7413132e-005
-1.7346976e-005
-1.7404738e-005
-1.7779481e-005
-1.8274744e-005
-1.8741287e-005
-1.9072995e-005
-1.9117609e-005
-1.883529e-005
-1.8447373e-005
-1.7998135e-005
-2.0295412e-005
-1.9958543e-005
-1.9701873e-005
-1.9546309e-005
-1.9550042e-005
-1.9696415e-005
-1.9745188e-005
-1.9721184e-005
-1.98893e-005
-2.0282985e-005
-2.0614918e-005
-2.066966e-005
-2.0364105e-005
-1.9781598e-005
-1.9253359e-005
-1.9072474e-005
-1.9317172e-005
-1.9732006e-005
-1.9951419e-005
-1.9943327e-005
-1.9820857e-005
-1.9838502e-005
-2.0083107e-005
-2.0466478e-005
-2.0930324e-005
-2.1364063e-005
-2.1521248e-005
-2.1306529e-005
-2.0962958e-005
-2.0635542e-005
-2.2447958e-005
-2.2344512e-005
-2.2229308e-005
-2.2079708e-005
-2.2042323e-005
-2.2166114e-005
-2.2202212e-005
-2.214101e-005
-2.224606e-005
-2.2563651e-005
-2.2818773e-005
-2.2829955e-005
-2.2518566e-005
-2.1932769e-005
-2.1368343e-005
-2.1151301e-005
-2.134203e-005
-2.168023e-005
-2.1824482e-005
-2.1760316e-005
-2.1670636e-005
-2.1726889e-005
-2.1869983e-005
-2.2070559e-005
-2.2412315e-005
-2.2890143e-005
-2.3242772e-005
-2.3208609e-005
-2.2918676e-005
-2.2631682e-005
-2.3914725e-005
-2.391975e-005
-2.3944837e-005
-2.3896788e-005
-2.3888328e-005
-2.3987939e-005
-2.3982598e-005
-2.3844092e-005
-2.3860044e-005
-2.4125787e-005
-2.4366144e-005
-2.4417e-005
-2.4241718e-005
-2.3805912e-005
-2.3261044e-005
-2.2883655e-005
-2.2832425e-005
-2.2928005e-005
-2.2937711e-005
-2.2852022e-005
-2.2812136e-005
-2.2895917e-005
-2.3057033e-005
-2.3231731e-005
-2.353197e-005
-2.3972591e-005
-2.4351772e-005
-2.4430806e-005
-2.4254205e-005
-2.4049041e-005
-2.4939244e-005
-2.4912278e-005
-2.4893561e-005
-2.4837606e-005
-2.4858048e-005
-2.4942364e-005
-2.49117e-005
-2.4707214e-005
-2.466301e-005
-2.495746e-005
-2.5279717e-005
-2.5450737e-005
-2.5434086e-005
-2.5160768e-005
-2.4655131e-005
-2.4128292e-005
-2.376756e-005
-2.3586233e-005
-2.3467444e-005
-2.3405651e-005
-2.335501e-005
-2.3382922e-005
-2.3565778e-005
-2.3857116e-005
-2.4253347e-005
-2.4712283e-005
-2.5008182e-005
-2.5101286e-005
-2.5054323e-005
-2.4994966e-005
-2.575353e-005
-2.5724907e-005
-2.5531932e-005
-2.5260495e-005
-2.5128158e-005
-2.5183983e-005
-2.5223658e-005
-2.5061139e-005
-2.4961788e-005
-2.5244493e-005
-2.5729023e-005
-2.6061805e-005
-2.6178049e-005
-2.6025611e-005
-2.5552086e-005
-2.4906568e-005
-2.4341303e-005
-2.3960512e-005
-2.3753479e-005
-2.3659371e-005
-2.3575474e-005
-2.3468295e-005
-2.3533198e-005
-2.3812086e-005
-2.4248197e-005
-2.476799e-005
-2.5161659e-005
-2.5372136e-005
-2.5497879e-005
-2.5645349e-005
-2.593449e-005
-2.5949505e-005
-2.57497e-005
-2.5408747e-005
-2.5152604e-005
-2.5163421e-005
-2.5266315e-005
-2.5191292e-005
-2.5046339e-005
-2.5172343e-005
-2.5594366e-005
-2.6033666e-005
-2.6288771e-005
-2.6239564e-005
-2.5794934e-005
-2.5097517e-005
-2.4464759e-005
-2.4028254e-005
-2.3761788e-005
-2.3652392e-005
-2.355416e-005
-2.3409882e-005
-2.3386348e-005
-2.354484e-005
-2.3888801e-005
-2.4397127e-005
-2.4918611e-005
-2.5294073e-005
-2.5556892e-005
-2.577603e-005
-2.5244466e-005
-2.5169488e-005
-2.5064023e-005
-2.4935234e-005
-2.4891964e-005
-2.4995603e-005
-2.5117735e-005
-2.5089388e-005
-2.4887622e-005
-2.4780116e-005
-2.496985e-005
-2.5382677e-005
-2.5759314e-005
-2.5812034e-005
-2.5424475e-005
-2.4804277e-005
-2.4271239e-005
-2.3914132e-005
-2.3711631e-005
-2.3597199e-005
-2.3457732e-005
-2.3344799e-005
-2.3346707e-005
-2.3482254e-005
-2.3697636e-005
-2.4014541e-005
-2.4426036e-005
-2.4802854e-005
-2.508317e-005
-2.5234062e-005
-2.3923002e-005
-2.3774244e-005
-2.3686561e-005
-2.3765476e-005
-2.4006229e-005
-2.4317338e-005
-2.4559052e-005
-2.4580684e-005
-2.4375818e-005
-2.4172196e-005
-2.4172609e-005
-2.4431458e-005
-2.4737346e-005
-2.4792708e-005
-2.4499962e-005
-2.4085735e-005
-2.3809216e-005
-2.3670421e-005
-2.3524582e-005
-2.3344944e-005
-2.3147696e-005
-2.3043972e-005
-2.3108169e-005
-2.3298862e-005
-2.3477191e-005
-2.3615816e-005
-2.3823087e-005
-2.4026277e-005
-2.4097676e-005
-2.4058174e-005
-2.2788747e-005
-2.254386e-005
-2.2402195e-005
-2.2485692e-005
-2.2756351e-005
-2.3080987e-005
-2.3354448e-005
-2.3513891e-005
-2.3527653e-005
-2.3434055e-005
-2.3368961e-005
-2.3456457e-005
-2.3588925e-005
-2.353216e-005
-2.3289464e-005
-2.3061318e-005
-2.300354e-005
-2.3059622e-005
-2.3049798e-005
-2.2854891e-005
-2.2570186e-005
-2.2393695e-005
-2.2415607e-005
-2.2600094e-005
-2.2812592e-005
-2.29736e-005
-2.3111464e-005
-2.3200846e-005
-2.3169918e-005
-2.3020705e-005
-2.1844336e-005
-2.1623004e-005
-2.1492711e-005
-2.1522798e-005
-2.1695951e-005
-2.1932126e-005
-2.2148637e-005
-2.2325161e-005
-2.2412257e-005
-2.234782e-005
-2.2235144e-005
-2.2202725e-005
-2.223857e-005
-2.2223658e-005
-2.2127493e-005
-2.2032775e-005
-2.2067317e-005
-2.2266801e-005
-2.2452752e-005
-2.2469101e-005
-2.2313766e-005
-2.2134823e-005
-2.2051683e-005
-2.209739e-005
-2.2208186e-005
-2.2309782e-005
-2.2382219e-005
-2.2372503e-005
-2.2275317e-005
-2.2082974e-005
-2.090578e-005
-2.0789735e-005
-2.0712534e-005
-2.0685587e-005
-2.0736724e-005
-2.0832207e-005
-2.0948404e-005
-2.1045855e-005
-2.1069112e-005
-2.0988193e-005
-2.0849218e-005
-2.0758007e-005
-2.0768301e-005
-2.0854331e-005
-2.0944208e-005
-2.1017392e-005
-2.1110462e-005
-2.1272952e-005
-2.1470317e-005
-2.1608764e-005
-2.1638059e-005
-2.1582998e-005
-2.1522963e-005
-2.1530136e-005
-2.1563427e-005
-2.1540856e-005
-2.1460534e-005
-2.1340031e-005
-2.1201947e-005
-2.1053625e-005
-1.9670831e-005
-1.9622076e-005
-1.9576934e-005
-1.9532808e-005
-1.9515586e-005
-1.952373e-005
-1.9531526e-005
-1.9510724e-005
-1.947968e-005
-1.9428121e-005
-1.9364856e-005
-1.9343989e-005
-1.939665e-005
-1.9544435e-005
-1.974968e-005
-1.9942545e-005
-2.0106873e-005
-2.025051e-005
-2.0361244e-005
-2.0438638e-005
-2.043594e-005
-2.0318742e-005
-2.0199144e-005
-2.0193374e-005
-2.0223972e-005
-2.0194813e-005
-2.0101482e-005
-1.9971049e-005
-1.9826247e-005
-1.9721918e-005
-1.7882063e-005
-1.7747744e-005
-1.767032e-005
-1.763794e-005
-1.7639784e-005
-1.7674997e-005
-1.7705088e-005
-1.7701004e-005
-1.766418e-005
-1.7643671e-005
-1.7675756e-005
-1.7744588e-005
-1.7823725e-005
-1.7932639e-005
-1.8098639e-005
-1.8297426e-005
-1.8480905e-005
-1.8642881e-005
-1.8774408e-005
-1.8858112e-005
-1.8886462e-005
-1.8828689e-005
-1.874857e-005
-1.8725293e-005
-1.8745389e-005
-1.873855e-005
-1.8653257e-005
-1.8488914e-005
-1.8276093e-005
-1.8055285e-005
-1.5745797e-005
-1.5598471e-005
-1.5524303e-005
-1.548414e-005
-1.5490265e-005
-1.5547855e-005
-1.563492e-005
-1.5700337e-005
-1.5714333e-005
-1.568216e-005
-1.5659422e-005
-1.5682682e-005
-1.574602e-005
-1.5835846e-005
-1.5936329e-005
-1.6060098e-005
-1.6175186e-005
-1.6276418e-005
-1.6381353e-005
-1.6489709e-005
-1.6602199e-005
-1.6670622e-005
-1.6686278e-005
-1.669548e-005
-1.6691203e-005
-1.6665639e-005
-1.6555819e-005
-1.6382939e-005
-1.6166435e-005
-1.5941267e-005
-1.3376282e-005
-1.3280192e-005
-1.3257409e-005
-1.3259703e-005
-1.322345e-005
-1.3189932e-005
-1.3198724e-005
-1.3250735e-005
-1.3325582e-005
-1.3374388e-005
-1.3409466e-005
-1.3463055e-005
-1.3566285e-005
-1.3674949e-005
-1.3754354e-005
-1.380052e-005
-1.3835199e-005
-1.3868976e-005
-1.3920924e-005
-1.399516e-005
-1.4074788e-005
-1.4128473e-005
-1.4138121e-005
-1.412029e-005
-1.4098952e-005
-1.4073615e-005
-1.4007905e-005
-1.3884437e-005
-1.3725633e-005
-1.354233e-005
-1.0583166e-005
-1.0481604e-005
-1.0425943e-005
-1.0392446e-005
-1.0335279e-005
-1.0260534e-005
-1.0207018e-005
-1.0215924e-005
-1.0297439e-005
-1.0410589e-005
-1.0521296e-005
-1.0631445e-005
-1.0762486e-005
-1.0889987e-005
-1.0990999e-005
-1.1071116e-005
-1.1130953e-005
-1.1187193e-005
-1.1247768e-005