/*--------------------------------*- C++ -*----------------------------------*\
| =========                 |                                                 |
| \\      /  F ield         | OpenFOAM: The Open Source CFD Toolbox           |
|  \\    /   O peration     | Version:  5.x                                   |
|   \\  /    A nd           | Web:      www.OpenFOAM.org                      |
|    \\/     M anipulation  |                                                 |
\*---------------------------------------------------------------------------*/
/*   Windows 32 and 64 bit porting by blueCAPE: http://www.bluecape.com.pt   *\
|  Based on Windows porting (2.0.x v4) by Symscape: http://www.symscape.com   |
\*---------------------------------------------------------------------------*/
FoamFile
{
    version     2.0;
    format      ascii;
    class       volVectorField;
    location    "6000.00000000";
    object      U;
}
// * * * * * * * * * * * * * * * * * * * * * * * * * * * * * * * * * * * * * //

dimensions      [0 1 -1 0 0 0 0];

internalField   nonuniform List<vector> 
51000
(
(0.021088963 -0.0001465113 -0.002962608)
(0.014032074 -8.8768424e-005 -0.0024542854)
(0.010109654 -8.5202881e-005 -0.00066844343)
(0.0084451026 -6.7346447e-005 9.9890813e-005)
(0.0071409348 -7.6542506e-005 -0.0004298575)
(0.0067631158 -7.525746e-005 -0.00051746046)
(0.0069942322 -4.7896723e-006 0.00010184191)
(0.0072722162 3.2477601e-005 0.00037786326)
(0.0078780161 6.9302375e-005 0.00063936076)
(0.0076939838 8.8283982e-005 0.00037892568)
(0.0061283736 1.956582e-005 -0.00042844812)
(0.0059183468 -2.661063e-005 -0.0007960295)
(0.007297096 4.3676263e-005 -0.0014222586)
(0.0090228039 0.00015125005 -0.0028445897)
(0.010759639 0.00020563971 -0.0042383686)
(0.011675556 8.6700076e-005 -0.0037618208)
(0.010311951 -1.7158398e-005 -0.0022250193)
(0.0073128494 3.828796e-005 -0.0014136226)
(0.0053917889 -4.2769428e-005 -0.002095887)
(0.0062479407 -0.00015595388 -0.0023433976)
(0.0071894879 -8.0491354e-005 0.00066222121)
(0.006387616 4.2441908e-005 0.0028306223)
(0.0052182529 0.00010391566 8.9574722e-005)
(0.0052628328 0.00013221687 -0.0031442813)
(0.0070078129 0.00011690679 -0.0036292606)
(0.0089262007 0.00015901379 -0.001272837)
(0.010327623 0.0001083406 0.00043722832)
(0.012855461 9.4479299e-006 -0.00041693432)
(0.019946789 -3.2247803e-005 -0.001199507)
(0.025245701 -0.00010163927 -0.0021333883)
(0.070428335 -0.00061524459 -0.0046054495)
(0.049226746 -0.0004080065 -0.0050497504)
(0.032226582 -0.00045239223 -0.0015962418)
(0.025616367 -0.00039003864 -0.00037340407)
(0.021766031 -0.00043782686 -0.0012504365)
(0.019775378 -0.00036331581 -0.00040896713)
(0.020349 2.6299966e-005 0.00085857206)
(0.021037689 0.00030754182 0.0010474452)
(0.022320121 0.00045620919 0.001199623)
(0.023554298 0.00040103474 -0.00011267956)
(0.020163063 -2.772362e-006 -0.0016802524)
(0.018002525 -8.0970094e-005 -0.0015241326)
(0.020943325 0.00033941856 -0.0027810258)
(0.026560021 0.00076362511 -0.006504342)
(0.033883189 0.00085896678 -0.0098495853)
(0.038832316 0.00032143103 -0.0094060815)
(0.03398903 -9.3347851e-005 -0.0062503749)
(0.024333437 6.9874245e-007 -0.0041356544)
(0.018795459 -0.00040376127 -0.0049798516)
(0.018972266 -0.0006547747 -0.0039674531)
(0.01938441 -0.00023116053 0.0019389205)
(0.01733745 0.00028717876 0.0038327407)
(0.016682519 0.00063752228 -0.0016902824)
(0.017923041 0.00083871843 -0.0060487978)
(0.021237892 0.00090442008 -0.0060780788)
(0.024971113 0.0011207548 -0.0028739175)
(0.028442458 0.00078872552 -0.0019976247)
(0.032407908 0.00011000594 -0.003546647)
(0.047820447 -0.00056307723 -0.0019422558)
(0.07055446 -0.00081139335 -0.0014063527)
(0.10717788 -0.0012679916 0.00067978901)
(0.091484447 -0.00027327483 -0.003885822)
(0.059989823 -0.00037602426 -0.0017611407)
(0.045092805 -0.00058462927 -0.00034467137)
(0.038424444 -0.00083234319 -0.0015224217)
(0.032891626 -0.00074458848 0.0004046047)
(0.032505722 -1.6000575e-005 0.0023448365)
(0.033732772 0.00067736595 0.0019525143)
(0.03618769 0.00095989674 0.0016115561)
(0.042277764 0.00078089583 -0.00077429277)
(0.038379003 -3.4948612e-006 -0.0030268862)
(0.030237125 -0.00012899019 -0.0019163161)
(0.032273886 0.00062814105 -0.0026240801)
(0.041528352 0.0012892875 -0.0077604532)
(0.055924846 0.0014131763 -0.01338384)
(0.069130005 0.00066574425 -0.014452776)
(0.064381063 0.00014406503 -0.010693565)
(0.048566831 0.0001054649 -0.0071978719)
(0.036638966 -0.00090135787 -0.0071586619)
(0.031714427 -0.0012472766 -0.0050270343)
(0.030504872 -0.00036772733 0.0021397227)
(0.026305176 0.00042331111 0.0038197343)
(0.026556558 0.0010247022 -0.0022972154)
(0.029352531 0.0017105067 -0.006573062)
(0.033130477 0.0020796777 -0.0064469598)
(0.038340785 0.0026119814 -0.003686497)
(0.043877781 0.0020153311 -0.0041897186)
(0.045485842 0.00074086271 -0.0058317705)
(0.05405994 -0.0013238304 -0.001363259)
(0.082668637 -0.0022939213 0.0033038797)
(0.10904887 -0.0032333431 0.0059472812)
(0.11886915 -0.00051800834 0.00080955529)
(0.088074241 0.00014135108 0.00031003167)
(0.065544426 -0.00038087394 0.0009627049)
(0.057438156 -0.00098434383 -0.0015733929)
(0.048146141 -0.0010297396 0.00093528241)
(0.044333209 -0.00017576409 0.004592857)
(0.045023791 0.00093859162 0.0038489194)
(0.047774612 0.0013954587 0.0028342296)
(0.061263746 0.0011928672 -0.00088151566)
(0.061567439 0.0003009633 -0.0045307294)
(0.044840004 9.4604734e-005 -0.0028670529)
(0.041681903 0.00088075719 -0.0017951084)
(0.052292855 0.0014575382 -0.0067114116)
(0.071907154 0.0014240661 -0.013961884)
(0.094342492 0.0007450629 -0.017836451)
(0.095365566 0.00074741907 -0.015077148)
(0.079893711 0.00069681692 -0.010668561)
(0.062556408 -0.0012033665 -0.0095138164)
(0.046357975 -0.0018733001 -0.0063417936)
(0.040513085 -0.00044378859 0.001685745)
(0.033018276 0.0003431129 0.0035437261)
(0.032407051 0.00075957844 -0.0026132622)
(0.037015864 0.0021664003 -0.0065586175)
(0.04127991 0.00313677 -0.0056582926)
(0.047316347 0.0041595534 -0.0028273886)
(0.055121379 0.0036633918 -0.0043529678)
(0.055833797 0.0022059202 -0.0056249566)
(0.057365239 -0.0014852255 0.00036188737)
(0.072180317 -0.0044733684 0.0055415795)
(0.095780215 -0.0062389066 0.0049542621)
(0.12541333 -0.0025150868 0.0033140069)
(0.10819514 0.00017546123 0.0034383321)
(0.082748849 1.2540671e-005 0.003729889)
(0.075612298 -0.00085845653 -0.0013364032)
(0.066363531 -0.00097380581 3.5863228e-005)
(0.058322916 -0.00027059189 0.0064844169)
(0.05612017 0.0010685769 0.0068104526)
(0.055997262 0.0016500302 0.0055934182)
(0.073598053 0.0013574636 0.00044299952)
(0.084316909 0.00086634317 -0.0057932869)
(0.063262321 0.00097013587 -0.0046881716)
(0.0513524 0.001418001 -0.0014343782)
(0.059390131 0.0013939097 -0.0043606516)
(0.08061085 0.00080630215 -0.011245796)
(0.10917859 0.00020870906 -0.017783082)
(0.11601475 0.0011977233 -0.017976405)
(0.10885063 0.0015540196 -0.013974931)
(0.095456272 -0.0010582009 -0.012356138)
(0.066250766 -0.002137877 -0.0083011809)
(0.049845639 -0.00035511301 0.00077533054)
(0.04027828 0.00024061137 0.0035834942)
(0.037749476 -0.00019706202 -0.002605172)
(0.041968197 0.0018254983 -0.0068757146)
(0.046952396 0.0036622759 -0.0054043545)
(0.052607707 0.0053832868 -0.00097213896)
(0.060109086 0.0053583252 -0.0020539337)
(0.063753132 0.0041062631 -0.0045220941)
(0.067515869 -0.00059857793 0.0011234927)
(0.069598717 -0.0060112745 0.0046729142)
(0.087471296 -0.0074252357 0.003447408)
(0.12083791 -0.0050170884 0.0021427453)
(0.11956743 -0.00099746446 0.0052282035)
(0.094944695 6.1631475e-005 0.0070446511)
(0.088143422 -0.00079369879 -0.00035888093)
(0.083481134 -0.00063441512 -0.0022856344)
(0.075301678 -2.7524945e-005 0.0063560217)
(0.069517319 0.0012525811 0.0095570875)
(0.064008202 0.0019369793 0.0092369106)
(0.077303679 0.0012918365 0.0037643665)
(0.097242946 0.001165169 -0.0057358469)
(0.080880741 0.002214208 -0.0068077396)
(0.062396129 0.0025708343 -0.0022408892)
(0.064041859 0.0015871667 -0.0019417164)
(0.083224796 -0.00029986276 -0.0058541214)
(0.11559017 -0.00088559002 -0.013506697)
(0.12460725 0.0013352923 -0.017980926)
(0.12572276 0.0020900098 -0.016043492)
(0.12510887 -0.00084809191 -0.014956736)
(0.089108607 -0.0016601069 -0.011084094)
(0.060340457 0.00019330492 -0.00074820412)
(0.051035906 0.00073805619 0.0036251943)
(0.047907125 -0.00048857849 -0.0022802132)
(0.048115883 0.0011837544 -0.0071819926)
(0.051178994 0.0036122564 -0.0058866187)
(0.056210941 0.0060681588 0.0009555036)
(0.060680372 0.0067723919 0.0017539186)
(0.067979735 0.0057829578 -0.0030081435)
(0.076708728 0.0010708157 0.0019345081)
(0.076822232 -0.0053881138 0.0057932402)
(0.086751358 -0.0064624699 0.0059465672)
(0.11451617 -0.0056555991 0.0022316723)
(0.12511638 -0.0021245904 0.0057578582)
(0.10421625 -0.00011803341 0.0096658631)
(0.09465324 -0.00089775855 0.0011890811)
(0.094075191 -0.00042506361 -0.0049805594)
(0.091133614 0.00056325893 0.003840789)
(0.085492588 0.0017286919 0.010629087)
(0.075048949 0.002562622 0.012019)
(0.078459738 0.0015693299 0.0081849933)
(0.099718225 0.001133962 -0.0034490545)
(0.092394009 0.0032067759 -0.008088677)
(0.073251118 0.0042148939 -0.0040108088)
(0.067287793 0.0023506962 -0.00048062806)
(0.081830462 -0.0015915991 0.00086459153)
(0.11600909 -0.0023458647 -0.0056217573)
(0.12566787 0.0013050799 -0.014355879)
(0.13151192 0.002170689 -0.016056962)
(0.14408986 -0.00093374053 -0.016617551)
(0.10775073 -0.00053464018 -0.013765541)
(0.071582926 0.0012842659 -0.0028639245)
(0.063724949 0.0020122829 0.0022065442)
(0.061817545 0.00085205993 -0.0032043254)
(0.05804848 0.0014958442 -0.0081821983)
(0.056148806 0.0033888081 -0.0065153754)
(0.058810449 0.0060863556 0.0028745967)
(0.060794306 0.0075828339 0.0054155609)
(0.069313958 0.0068743085 -0.00014410296)
(0.079683679 0.0026327262 0.0037272826)
(0.082882698 -0.0035121644 0.0075438144)
(0.090659918 -0.0052379694 0.00349968)
(0.1112979 -0.0052716603 0.0019325847)
(0.12848458 -0.0020235601 0.0057280431)
(0.1133856 0.00038578428 0.010994896)
(0.099874982 -0.00065805183 0.0027692867)
(0.098885162 -0.00041041338 -0.0072132991)
(0.10061392 0.0011628159 -0.00030451703)
(0.099594403 0.0025337612 0.0096230116)
(0.088428288 0.0037547805 0.012964965)
(0.082571518 0.0025579553 0.01165122)
(0.096964563 0.001003693 0.00056197955)
(0.097703285 0.0035951218 -0.007871599)
(0.082711676 0.005955854 -0.0061024944)
(0.071719004 0.0035485072 -0.00099137032)
(0.079937464 -0.002782489 0.0064068288)
(0.11202216 -0.0040996017 0.0034464014)
(0.12158811 0.0011674717 -0.007804146)
(0.13144912 0.0019162567 -0.013509731)
(0.1540804 -0.0011495452 -0.017118665)
(0.12072562 0.00082542681 -0.015613292)
(0.082803516 0.0028474358 -0.0049409257)
(0.075634512 0.0036131646 -4.2142384e-006)
(0.073194393 0.0028643103 -0.0050577627)
(0.068735361 0.0029974496 -0.0098998419)
(0.063478903 0.003890162 -0.0072761737)
(0.061736609 0.0057948723 0.0044247534)
(0.061993942 0.0075925553 0.0081839986)
(0.069038116 0.007101904 0.0045321564)
(0.079825119 0.0037862154 0.0071996816)
(0.087730821 -0.0014333414 0.0065243406)
(0.096347876 -0.0040611479 -0.0027377604)
(0.10995606 -0.0052070641 -0.004518013)
(0.13004116 -0.0014564826 0.0025725944)
(0.12366542 0.0014257148 0.010489475)
(0.1088747 -5.2121322e-005 0.0044906218)
(0.10378405 -0.00028960392 -0.0081416502)
(0.10483538 0.0014318239 -0.0047989686)
(0.10714202 0.0031410647 0.0068259821)
(0.099965419 0.0053440499 0.012183122)
(0.090445413 0.0043200468 0.012802712)
(0.092786041 0.00095632063 0.0047529855)
(0.096320126 0.0031026063 -0.0055947376)
(0.090392406 0.0072756035 -0.0079145512)
(0.07865233 0.0051917968 -0.0035448889)
(0.079889385 -0.0035716545 0.0092810727)
(0.10499302 -0.0060707172 0.011201842)
(0.11395295 0.00078018001 -0.00036351931)
(0.12842612 0.0011637871 -0.0085224427)
(0.1590223 -0.0014086529 -0.015302444)
(0.13100432 0.0023240568 -0.016303577)
(0.093758319 0.0045393838 -0.0070277102)
(0.085183646 0.0051284166 -0.0020826011)
(0.081289913 0.0047877276 -0.0075127612)
(0.078098815 0.0045060596 -0.013206186)
(0.073516567 0.0049707504 -0.010235387)
(0.069559838 0.0058668953 0.0036602066)
(0.066629724 0.0067538597 0.011306777)
(0.068585223 0.0062359571 0.011557595)
(0.080279749 0.0042825576 0.012538231)
(0.093723477 0.00042045056 0.0060153732)
(0.10379639 -0.0032367785 -0.0036288238)
(0.10870412 -0.0053669696 -0.010015637)
(0.12536237 -0.0015860983 -0.0026791564)
(0.1317953 0.0016677019 0.0086064759)
(0.12373715 7.2038523e-005 0.0061204834)
(0.11378584 5.3585744e-005 -0.007974637)
(0.10924687 0.001417245 -0.0083043695)
(0.10846732 0.0030335063 0.0035793982)
(0.1060938 0.0067342772 0.01004542)
(0.09917138 0.0067218276 0.011578497)
(0.091575756 0.0013422485 0.0082270645)
(0.091393639 0.0014243194 -0.0013449011)
(0.094235869 0.0073011589 -0.0089761544)
(0.082938146 0.0069262846 -0.0047854989)
(0.084750593 -0.0038310411 0.011547607)
(0.10050662 -0.0077845434 0.016287594)
(0.10432812 -0.00062148264 0.0051271352)
(0.12067321 -0.00051846462 0.00013847522)
(0.16067041 -0.0022052787 -0.0079424577)
(0.14138445 0.0038928791 -0.01550739)
(0.10341568 0.0068918411 -0.0081400853)
(0.092818077 0.0065520366 -0.0023647745)
(0.088112428 0.0054646521 -0.0084914767)
(0.087721757 0.0045743133 -0.01699638)
(0.08502083 0.0061960721 -0.017931832)
(0.07842503 0.0066570807 -0.003311845)
(0.076692437 0.0047857527 0.011073399)
(0.073555528 0.0037697051 0.016928633)
(0.084805416 0.0034180371 0.015915344)
(0.10204104 0.0011984034 0.0073555581)
(0.11607377 -0.0026399477 -0.0011429397)
(0.11341524 -0.0054573974 -0.010793804)
(0.11832406 -0.00261313 -0.0067053802)
(0.13268489 0.00011484211 0.0080729026)
(0.13892232 -0.0011766751 0.0098583135)
(0.12995205 -0.00013825052 -0.0063484192)
(0.11953519 0.00081095215 -0.011268109)
(0.10931049 0.0016458859 0.00044789783)
(0.10710305 0.0069993939 0.0074231079)
(0.10677933 0.0095060668 0.0093026692)
(0.10318571 0.0026120304 0.0097167821)
(0.096034609 -0.0013160101 0.0022401294)
(0.092656573 0.0061628447 -0.0081018134)
(0.084419837 0.0081514593 -0.0027765328)
(0.098871856 -0.0045368675 0.012185562)
(0.11031799 -0.0093280491 0.016782248)
(0.099433454 -0.0022476573 0.0078009297)
(0.10773326 -0.0041506755 0.011094441)
(0.15549098 -0.0049577972 0.0072363271)
(0.15290931 0.0047951731 -0.010579457)
(0.11453848 0.0094839151 -0.0095816905)
(0.094686632 0.0089825527 0.00016108388)
(0.089303871 0.0079405008 0.0004532809)
(0.093638736 0.0043447111 -0.0084399357)
(0.096880172 0.0069739321 -0.019579514)
(0.087858902 0.0088169812 -0.014354064)
(0.090776172 0.0031389972 -0.00041032818)
(0.088093025 0.00047845303 0.009660731)
(0.09424016 0.0012452158 0.0098047318)
(0.11201945 0.00075244118 0.0058978886)
(0.13166653 -0.0020663634 -0.0016667807)
(0.12680791 -0.0044213886 -0.0096477029)
(0.11777695 -0.0032674648 -0.0098997806)
(0.12901863 -0.0022614046 0.0059513041)
(0.14468673 -0.0030180051 0.012521573)
(0.14162307 -0.00019995212 -0.0026542353)
(0.13065577 0.00088852999 -0.011471939)
(0.1119131 -0.0003455081 -0.0017735037)
(0.10274863 0.0059905142 0.0059319301)
(0.10675222 0.012131808 0.0099146239)
(0.11874434 0.004610259 0.010963178)
(0.11084906 -0.0031940367 0.0036835676)
(0.090041309 0.0053793865 -0.0045430432)
(0.08935377 0.0090576823 0.00030965335)
(0.11216045 -0.0045727428 0.010905694)
(0.12623818 -0.010626837 0.014493098)
(0.11100139 -0.0038922599 0.0099950661)
(0.10629686 -0.0089819491 0.01720332)
(0.14601387 -0.010165816 0.018114982)
(0.15839773 0.0039060588 -0.0025982841)
(0.1226209 0.011853213 -0.008694076)
(0.099237876 0.010128315 0.0004877587)
(0.095156968 0.0080232224 0.0068807707)
(0.10422319 0.0041747667 0.0042250677)
(0.10442194 0.0065390788 -0.0093854418)
(0.096747887 0.0097566214 -0.018110112)
(0.10975364 0.0033383298 -0.012439087)
(0.11162071 -0.00033929599 -0.0032072546)
(0.10850118 -0.00065459185 -0.0042896416)
(0.12198827 -0.00077424222 -0.0032601653)
(0.14503215 -0.0029921409 -0.0053372201)
(0.14595705 -0.0028834343 -0.0081965896)
(0.12487175 -0.0026544485 -0.01190832)
(0.12551315 -0.0034463115 0.0017261795)
(0.14644974 -0.0038431666 0.011236421)
(0.1433533 8.464393e-005 -0.00026482435)
(0.13022839 0.0017451539 -0.0092931534)
(0.11404066 -0.0011251812 -0.003795509)
(0.095350604 0.0046192881 0.0043197671)
(0.098815458 0.012269711 0.01216168)
(0.11923975 0.0047742961 0.015064973)
(0.11660721 -0.0034725224 0.0063723791)
(0.089680979 0.003920625 -0.00035490444)
(0.093695705 0.0077055535 0.0018649798)
(0.11479728 -0.0038134125 0.010376116)
(0.1293184 -0.010840287 0.015136606)
(0.12705835 -0.0057715684 0.011298315)
(0.12057084 -0.011645792 0.014772291)
(0.13795417 -0.013723397 0.017679428)
(0.15032484 0.0036384834 0.0012055772)
(0.12209804 0.014343028 -0.0090011763)
(0.10862845 0.010161174 -0.0034524287)
(0.10757269 0.0057826003 0.0016685463)
(0.11619093 0.0043606029 0.00365379)
(0.11144637 0.0073519216 -0.0018136732)
(0.10057639 0.0079891411 -0.016009611)
(0.11313265 0.0013742556 -0.012364209)
(0.12676266 -0.0010069152 -0.0013863028)
(0.12813604 -0.0019546799 -0.0077956706)
(0.13301748 -0.0035819693 -0.012116504)
(0.15022106 -0.0049385136 -0.009775396)
(0.16010791 -0.0020101263 -0.0070971186)
(0.13857774 -0.00058793317 -0.012603646)
(0.12482742 -0.0037883971 -0.0041653421)
(0.1446037 -0.0037734711 0.0096221791)
(0.14259261 0.0018948911 0.005264526)
(0.13081041 0.0015977424 -0.0033040991)
(0.12787863 -0.0022788628 -0.0061203804)
(0.10266012 0.0030013733 -0.0024852719)
(0.093843773 0.009640868 0.0096342437)
(0.10926031 0.0042540893 0.018616235)
(0.11241182 -0.0022695408 0.012133281)
(0.093288348 0.0020883221 0.002634701)
(0.096853906 0.0053898393 -0.00083573905)
(0.1173246 -0.0026670046 0.0060198844)
(0.13168607 -0.0097904221 0.016191435)
(0.1324213 -0.0075843265 0.013668555)
(0.12905329 -0.011764933 0.011545527)
(0.13011694 -0.012971156 0.014956935)
(0.13346641 0.0040097958 0.00232253)
(0.12154705 0.014331316 -0.0090284911)
(0.12100496 0.0084279854 -0.0045045031)
(0.11887345 0.0035969235 -0.0044829005)
(0.12140854 0.0047933001 -0.0049039326)
(0.12262107 0.00829951 -0.0035050705)
(0.11749795 0.0062328832 -0.014567162)
(0.11722662 -0.0008031816 -0.011723594)
(0.1262923 -0.0025913908 0.0039848086)
(0.13836468 -0.0027358164 0.00037145754)
(0.14263775 -0.0050765534 -0.012636078)
(0.15012311 -0.0058295674 -0.012751043)
(0.15952625 -0.00272382 -0.0083675286)
(0.14905736 0.0016127278 -0.011297305)
(0.13127661 -0.0019047749 -0.0085940764)
(0.13706768 -0.0040347345 0.0046741232)
(0.14445328 0.0020341298 0.0099530677)
(0.14825257 0.00080648783 0.0061040152)
(0.15155679 -0.0035165719 -0.0026209698)
(0.12646326 0.0023631132 -0.0076036083)
(0.10130984 0.0084559546 0.0031987489)
(0.1054392 0.0041565121 0.016179025)
(0.11051435 -0.0013590522 0.015736425)
(0.10057796 0.00092121443 0.006045769)
(0.10249626 0.0034329454 -0.0029696891)
(0.12222691 -0.00165176 -0.00066926487)
(0.14084561 -0.0075357275 0.012951719)
(0.13916168 -0.0077800364 0.016690413)
(0.13010647 -0.011220217 0.01068904)
(0.12460244 -0.010768826 0.012171478)
(0.12347807 0.0021404795 0.0069072006)
(0.12725701 0.0099107583 -0.0017628863)
(0.13299666 0.0065138772 -0.00079976767)
(0.12722132 0.0034018934 -0.0060692178)
(0.12478943 0.0045502945 -0.011916315)
(0.13505132 0.0062692719 -0.0099516305)
(0.14098465 0.003478486 -0.016117654)
(0.13366707 -0.0021013204 -0.014745863)
(0.12891753 -0.0037956306 0.0022334455)
(0.13747382 -0.0038960713 0.0065104198)
(0.14599017 -0.0050401059 -0.0075516137)
(0.14833168 -0.0057282019 -0.012392983)
(0.15184474 -0.0036201709 -0.010675252)
(0.14869086 0.0019653179 -0.0094990009)
(0.13857326 0.00036695826 -0.0090956961)
(0.13564883 -0.0028661035 -0.00054627074)
(0.14539413 -0.00031647039 0.0083341294)
(0.16016117 -0.0017923044 0.0067847374)
(0.16099477 -0.0037348988 -0.0015082569)
(0.13753249 0.0035289149 -0.0067580264)
(0.11369167 0.0094024183 -0.00055910029)
(0.11555488 0.0047048127 0.0078407549)
(0.12056505 -0.00042883816 0.010556854)
(0.11268393 0.00053768399 0.0063511017)
(0.11105239 0.001688025 -0.0013579903)
(0.12676622 -0.0021446501 -0.0024597159)
(0.14684301 -0.0059534568 0.0088151401)
(0.14752163 -0.0061552111 0.017901426)
(0.13421807 -0.0091956164 0.01319508)
(0.12541549 -0.0087491653 0.0099238834)
(0.12628787 0.00012420055 0.009838234)
(0.13200924 0.0055942382 0.0040127091)
(0.13432828 0.0052056363 0.00016246806)
(0.13063303 0.0040566263 -0.0063770744)
(0.13170645 0.0036503058 -0.014794957)
(0.1454207 0.0029402694 -0.014676921)
(0.15189992 0.00086544129 -0.015979334)
(0.14204724 -0.0024966832 -0.015499323)
(0.13180526 -0.0044403275 -0.0019225459)
(0.13389961 -0.0047652416 0.0083391288)
(0.1435151 -0.0048449852 -0.0014775891)
(0.14592018 -0.0047467465 -0.0093617318)
(0.14656858 -0.0044661014 -0.01229739)
(0.14523276 0.00017106919 -0.010328408)
(0.14294298 0.0007072318 -0.0092467088)
(0.13996802 -0.0017896768 -0.002526031)
(0.14534956 -0.0027371199 0.0054990005)
(0.16040691 -0.0044157722 0.003083113)
(0.16023123 -0.0028157933 -0.0032940381)
(0.13736884 0.0051728957 -0.0032644053)
(0.11886274 0.0090255632 0.00060002177)
(0.12290896 0.0048716879 0.0011515712)
(0.13149116 0.0016703478 0.00059884476)
(0.12668019 0.0023624067 0.0010342363)
(0.12202134 0.0014293018 -0.00037201716)
(0.13203559 -0.0031986563 -0.0016188548)
(0.14933347 -0.005546918 0.0042154796)
(0.15273162 -0.0047554642 0.014196205)
(0.14188326 -0.0067137573 0.015974786)
(0.13250896 -0.0070597876 0.011922105)
(0.13317659 -0.0011690602 0.010639843)
(0.13402738 0.0033630883 0.005301533)
(0.13250785 0.0041495247 -0.00092759686)
(0.13329525 0.003558831 -0.0068717321)
(0.13849415 0.0024016024 -0.014932722)
(0.15006755 0.00092166579 -0.016060954)
(0.152869 0.00027647393 -0.01476289)
(0.14298861 -0.0015839107 -0.014744704)
(0.13344692 -0.0045903246 -0.0057071462)
(0.13209111 -0.0053733489 0.007005946)
(0.13970064 -0.0040610882 0.0032702767)
(0.14422923 -0.0027607767 -0.00395946)
(0.14604892 -0.0042647775 -0.011449135)
(0.14302764 -0.0028069394 -0.013511333)
(0.14274945 -0.0012902321 -0.011581771)
(0.14534845 -0.0019849135 -0.0032958186)
(0.14972349 -0.0051994151 0.0031320331)
(0.15902561 -0.0080845245 9.8964808e-005)
(0.15978933 -0.0033993564 -0.0038836228)
(0.14143809 0.0059443401 -0.0012555137)
(0.12373888 0.0080304719 0.0010475759)
(0.12188279 0.0041311055 -0.0022511802)
(0.13015075 0.0031250413 -0.0068471684)
(0.13565475 0.0047739316 -0.0072423391)
(0.1359696 0.0021705445 -0.0047339031)
(0.1391921 -0.0043391528 -0.0027137528)
(0.14987793 -0.006529913 0.00020464273)
(0.15429419 -0.004032438 0.0077311471)
(0.14689147 -0.0043423526 0.014478409)
(0.13936286 -0.0053281281 0.014713714)
(0.13881025 -0.0023979519 0.01259286)
(0.13719611 0.0013436753 0.0074776486)
(0.13595934 0.0029917011 0.0007531188)
(0.13835325 0.0031611655 -0.0056370943)
(0.14272217 0.0021216413 -0.01296646)
(0.15042327 0.00082466967 -0.014028965)
(0.15107627 0.0010419842 -0.012521984)
(0.14258247 -0.0004629272 -0.013568237)
(0.1348447 -0.0046718403 -0.0078051474)
(0.13150535 -0.0061706262 0.0050589252)
(0.1364704 -0.0034637166 0.0067764625)
(0.14413612 -0.0014074135 0.0016853664)
(0.14677423 -0.0024312762 -0.0078287028)
(0.14178692 -0.0035315479 -0.014345433)
(0.14035045 -0.0047084787 -0.014154896)
(0.1480614 -0.0048899016 -0.0060951505)
(0.15678195 -0.0068184221 -2.6081383e-005)
(0.1599813 -0.0096325944 -0.0015319947)
(0.15769568 -0.0043781619 -0.0034371569)
(0.14589672 0.0055693001 -0.00062836555)
(0.13055857 0.0080049653 0.0014513155)
(0.12367381 0.0050961482 -0.0019735598)
(0.12761041 0.0053057569 -0.0096164739)
(0.13797422 0.0068489676 -0.014612965)
(0.14618221 0.0027341648 -0.012237219)
(0.14667737 -0.0052910943 -0.006644749)
(0.14834199 -0.0082960607 -0.002944805)
(0.15155562 -0.0043012011 0.0022171334)
(0.14842631 -0.0026313465 0.01082348)
(0.14268011 -0.0038826983 0.015313114)
(0.14172399 -0.003474625 0.013352215)
(0.14098149 -0.00066048977 0.007945118)
(0.14083953 0.0018429706 0.0022915083)
(0.14252651 0.0033904551 -0.0030277599)
(0.14404161 0.0033126082 -0.0092217)
(0.14812608 0.0023987773 -0.010701268)
(0.14898624 0.00264497 -0.010312582)
(0.14439448 0.00059238099 -0.012630589)
(0.13826436 -0.0045038406 -0.0092902268)
(0.13242644 -0.0064963706 0.0027502612)
(0.13496745 -0.0033717402 0.008702648)
(0.14412401 -0.00078306158 0.0058686352)
(0.14819281 -0.0002664927 -0.0031019244)
(0.14249279 -0.0021531779 -0.01252643)
(0.13910206 -0.0067353281 -0.015110471)
(0.14706537 -0.0084920982 -0.0090805989)
(0.16133049 -0.0085538066 -0.0037214733)
(0.16477931 -0.0099274942 -0.0029835273)
(0.15646711 -0.0054743249 -0.0018996701)
(0.14468809 0.0042538092 0.0014921128)
(0.13261606 0.008599213 0.0025308039)
(0.1280399 0.0073889704 -0.0024646578)
(0.1312645 0.0075288929 -0.0109373)
(0.14183291 0.0070136811 -0.01678721)
(0.15468012 0.0011093714 -0.015866666)
(0.15747469 -0.00700302 -0.010522751)
(0.15207539 -0.010332216 -0.0057031265)
(0.14872336 -0.0060858948 -0.0015281049)
(0.14733782 -0.0024804916 0.0068849198)
(0.14432409 -0.0033515246 0.014291905)
(0.14318097 -0.0044222825 0.013052923)
(0.14326212 -0.0023343637 0.0068617675)
(0.14377505 0.0012772361 0.0024583506)
(0.14392259 0.0040430454 -0.00096663124)
(0.14337071 0.004453181 -0.0056268525)
(0.14629932 0.0039479699 -0.0078629186)
(0.14734704 0.0044699075 -0.0093399387)
(0.14594621 0.001673491 -0.011796903)
(0.14280608 -0.0043790485 -0.0097355148)
(0.135233 -0.0066274295 -0.0002714343)
(0.13459218 -0.0035226625 0.0080617124)
(0.14318907 -0.0017254589 0.0085301206)
(0.15069319 0.00028467157 0.0027749351)
(0.14866649 -0.00021653734 -0.0079721911)
(0.14453077 -0.005934929 -0.014099145)
(0.14823379 -0.010059507 -0.010710056)
(0.16256711 -0.010223975 -0.0061735121)
(0.16793766 -0.0097186918 -0.004347399)
(0.15433406 -0.0048836984 -0.00046376361)
(0.1386728 0.004532021 0.0042652115)
(0.13174015 0.0094876075 0.0032485534)
(0.13362447 0.0079891912 -0.0027644101)
(0.13664167 0.0065238117 -0.0082268261)
(0.14306959 0.0040111515 -0.012518684)
(0.15688014 -0.0022618125 -0.015099114)
(0.16591896 -0.008510818 -0.014065403)
(0.16179532 -0.010926283 -0.010253961)
(0.15295873 -0.0070080556 -0.0058707784)
(0.14846522 -0.0027360132 0.0025298659)
(0.145813 -0.0030004213 0.012027695)
(0.14449051 -0.0046569319 0.012889664)
(0.1443485 -0.0033307808 0.0068457371)
(0.14420353 0.0010318556 0.0026499525)
(0.14342504 0.0047482003 0.00030196311)
(0.14271874 0.00508886 -0.0030671918)
(0.14586046 0.0048699981 -0.0059705741)
(0.14647619 0.006313947 -0.0088776528)
(0.14601686 0.0033243774 -0.011012374)
(0.14614777 -0.0036817706 -0.0098797755)
(0.13886579 -0.0065025459 -0.0037339262)
(0.1348164 -0.004143623 0.0053473236)
(0.14339089 -0.0035730307 0.008914256)
(0.15019929 -0.0009490476 0.0068825035)
(0.150616 8.3907086e-005 -0.0025368856)
(0.14788657 -0.0045074733 -0.010406617)
(0.14965922 -0.0094020205 -0.010616109)
(0.16129865 -0.010505823 -0.0067230265)
(0.16733783 -0.0090225291 -0.0031673453)
(0.15498567 -0.0036630937 0.00054116549)
(0.14087408 0.004939996 0.0031948528)
(0.13763673 0.0091004799 0.0010589605)
(0.13951332 0.0065164304 -0.00181104)
(0.13798361 0.0036166289 -0.0026380141)
(0.13889333 0.00011914559 -0.0047542105)
(0.1497958 -0.0061113688 -0.0082418067)
(0.16141768 -0.01108901 -0.010226905)
(0.16291329 -0.011993078 -0.009678976)
(0.15627513 -0.0076756574 -0.0073111369)
(0.15029221 -0.0027442377 -0.00034229687)
(0.14669538 -0.0021224665 0.0094922977)
(0.14564753 -0.0039600857 0.012371588)
(0.14559279 -0.003541106 0.0078595623)
(0.14354957 0.00081389038 0.0036752056)
(0.141629 0.0051815488 0.0013962186)
(0.14187877 0.0054808843 -0.001291522)
(0.14535572 0.0051056062 -0.0044299274)
(0.14576288 0.0071492125 -0.0082937633)
(0.14476948 0.0046541188 -0.010241767)
(0.1462026 -0.0027715942 -0.0091932872)
(0.14202935 -0.0065681979 -0.0058991939)
(0.13794413 -0.0054050179 0.0020095762)
(0.14518625 -0.0060109851 0.008529706)
(0.14811729 -0.0020308373 0.0070709877)
(0.14698471 0.00012004825 -0.00093534679)
(0.14626917 -0.0038097474 -0.0063471777)
(0.14990557 -0.0088312061 -0.0073622114)
(0.15910947 -0.010548101 -0.0060534868)
(0.1638472 -0.0081671599 -0.0025483544)
(0.15575771 -0.0020213986 0.00044698633)
(0.1474625 0.0049562663 4.8063704e-005)
(0.14579342 0.0072648636 -0.001284818)
(0.14366724 0.0036662862 0.00063996741)
(0.13751533 0.00027478151 0.0026660465)
(0.13557234 -0.002205223 0.00066177247)
(0.14441321 -0.006647907 -0.0037641506)
(0.15691258 -0.010962612 -0.0070916906)
(0.16183269 -0.012042663 -0.0081467096)
(0.15711492 -0.0082474041 -0.0070055891)
(0.15066321 -0.0029683359 -0.001540789)
(0.14709151 -0.0014200294 0.0073319496)
(0.14657303 -0.0034648094 0.011300812)
(0.14617327 -0.0037057058 0.0088288459)
(0.14276937 0.00085597459 0.0055692319)
(0.14069065 0.005603123 0.0030723614)
(0.14152841 0.0059092358 0.00023450494)
(0.14377541 0.0051265858 -0.002921819)
(0.14379198 0.0070349102 -0.0076761957)
(0.14310473 0.0056820246 -0.010881991)
(0.14507184 -0.0011405908 -0.0094160288)
(0.14430883 -0.0067210462 -0.0059461781)
(0.1423597 -0.0077569513 0.0011401423)
(0.14504386 -0.0073080821 0.0082913615)
(0.1441171 -0.0032054816 0.0058377541)
(0.14232359 -0.00063914388 -0.00081906184)
(0.14518755 -0.0032403854 -0.0023588376)
(0.15176233 -0.0074731018 -0.0015888549)
(0.1577478 -0.009665239 -0.0033159017)
(0.16000121 -0.0076130294 -0.0043176188)
(0.1562808 -0.00073975713 -0.0034021281)
(0.15330692 0.006294139 -0.0028239374)
(0.15185851 0.0080060411 0.00015075603)
(0.14687804 0.0038097798 0.0060709006)
(0.13905028 -2.1849606e-007 0.0084793152)
(0.13573074 -0.001671227 0.0042739822)
(0.14248969 -0.0052484315 -0.0020358431)
(0.15543085 -0.0097802039 -0.005892542)
(0.16321686 -0.011272894 -0.007547516)
(0.15891393 -0.0080312141 -0.0073846434)
(0.15077443 -0.0027954551 -0.0031630994)
(0.14699288 -0.00059704938 0.0047782918)
(0.1469593 -0.0025137057 0.0094389257)
(0.14612176 -0.0033448731 0.0085297936)
(0.14307179 0.00082400792 0.0063373053)
(0.14218739 0.0054487137 0.0041141738)
(0.14270281 0.006071617 0.0011431301)
(0.14221852 0.0053460329 -0.0018676591)
(0.14037883 0.0063860974 -0.007127586)
(0.14007824 0.0055055036 -0.012207545)