/*--------------------------------*- C++ -*----------------------------------*\
| =========                 |                                                 |
| \\      /  F ield         | OpenFOAM: The Open Source CFD Toolbox           |
|  \\    /   O peration     | Version:  5.x                                   |
|   \\  /    A nd           | Web:      www.OpenFOAM.org                      |
|    \\/     M anipulation  |                                                 |
\*---------------------------------------------------------------------------*/
/*   Windows 32 and 64 bit porting by blueCAPE: http://www.bluecape.com.pt   *\
|  Based on Windows porting (2.0.x v4) by Symscape: http://www.symscape.com   |
\*---------------------------------------------------------------------------*/
FoamFile
{
    version     2.0;
    format      ascii;
    class       volVectorField;
    location    "6000.00000000";
    object      UMean;
}
// * * * * * * * * * * * * * * * * * * * * * * * * * * * * * * * * * * * * * //

dimensions      [0 1 -1 0 0 0 0];

internalField   nonuniform List<vector> 
51000
(
(0.010788191 4.4058676e-006 4.3098118e-005)
(0.010781787 4.5565231e-006 2.3117938e-005)
(0.010772505 4.8623277e-006 1.5073026e-006)
(0.010756973 5.237558e-006 -1.3741794e-005)
(0.010745121 5.4803246e-006 -2.1822439e-005)
(0.01073754 5.6307634e-006 -2.7825093e-005)
(0.010731317 5.6964671e-006 -3.2322509e-005)
(0.010723719 5.6626496e-006 -3.3053003e-005)
(0.010712618 5.6387775e-006 -2.6497148e-005)
(0.010698327 5.3998678e-006 -1.2989864e-005)
(0.010683838 5.0363402e-006 8.2975012e-006)
(0.01067203 4.9550483e-006 3.6175382e-005)
(0.010671088 4.8935476e-006 6.5927846e-005)
(0.010675224 4.629847e-006 9.1473268e-005)
(0.010681679 4.0947176e-006 0.00010836181)
(0.010690492 3.6246446e-006 0.00011653373)
(0.010701394 3.4292034e-006 0.00011404259)
(0.010711544 3.7061537e-006 0.00010675264)
(0.010717362 3.878929e-006 0.00010223833)
(0.010717283 3.8852397e-006 0.00010209186)
(0.010719256 3.8572659e-006 0.00010386371)
(0.010724569 3.8831869e-006 0.00010694419)
(0.010731617 3.7847069e-006 0.00011050848)
(0.010743139 3.5102693e-006 0.00011153647)
(0.010763149 3.2015598e-006 0.00010768614)
(0.010785271 3.0551219e-006 9.8187519e-005)
(0.010800075 3.3001248e-006 8.6932487e-005)
(0.010804424 3.7796058e-006 7.7309956e-005)
(0.010801679 4.1020095e-006 6.7927122e-005)
(0.010794717 4.2639251e-006 5.7439578e-005)
(0.032583167 6.6745474e-006 0.00015209402)
(0.032574705 7.7258435e-006 0.00011298446)
(0.032560598 9.6260105e-006 6.6070898e-005)
(0.032526338 1.2120372e-005 2.4629685e-005)
(0.032497551 1.3913419e-005 -4.3765496e-006)
(0.032476188 1.5280617e-005 -2.3839003e-005)
(0.032456874 1.6761885e-005 -3.4496482e-005)
(0.032434069 1.82954e-005 -3.7833891e-005)
(0.032401001 1.9543444e-005 -3.0040806e-005)
(0.032358106 1.9528158e-005 -7.7791876e-006)
(0.032312422 1.8198954e-005 3.5252479e-005)
(0.032271554 1.662059e-005 9.1735899e-005)
(0.032261727 1.4292204e-005 0.00014695102)
(0.0322671 1.119509e-005 0.00019305666)
(0.032279959 6.8677918e-006 0.00022741734)
(0.032298978 2.9544957e-006 0.00025079774)
(0.03232164 6.1014126e-007 0.00025486572)
(0.032345534 2.9995853e-007 0.0002441328)
(0.032362608 9.8049224e-007 0.00023387569)
(0.032366547 1.6333652e-006 0.00023347718)
(0.032376613 1.6363307e-006 0.00023980122)
(0.032394741 1.6048919e-006 0.00025005558)
(0.032417855 8.7440376e-007 0.00026079457)
(0.03245228 -1.3502135e-006 0.00026482553)
(0.032507037 -3.8720051e-006 0.00025938801)
(0.03256535 -4.5860658e-006 0.00024463638)
(0.0326001 -2.8941057e-006 0.00022702691)
(0.032608085 -1.5939857e-008 0.00021215128)
(0.032603953 2.9697032e-006 0.00019712394)
(0.032592618 5.2461517e-006 0.00017879322)
(0.053364217 4.2284597e-006 0.00027166171)
(0.053379453 6.2504883e-006 0.00023114521)
(0.053388253 9.4960166e-006 0.00017714361)
(0.053365268 1.5131765e-005 0.00011980841)
(0.053340861 1.9828581e-005 7.3481889e-005)
(0.053316072 2.3138317e-005 4.7367386e-005)
(0.053289859 2.6367149e-005 3.8105383e-005)
(0.053263219 3.0214558e-005 3.4446966e-005)
(0.053224043 3.3744951e-005 3.7805177e-005)
(0.053164884 3.5385571e-005 5.6519187e-005)
(0.053090714 3.3395095e-005 0.00010163046)
(0.05301473 2.8834797e-005 0.00015977257)
(0.052977676 2.2521195e-005 0.0002116142)
(0.052964259 1.5090748e-005 0.00025277754)
(0.05296288 4.9863016e-006 0.00028587003)
(0.052969426 -4.0603916e-006 0.00031189959)
(0.052977913 -1.015414e-005 0.00032056753)
(0.052988791 -1.2235883e-005 0.00031272197)
(0.052997067 -1.121638e-005 0.00030338466)
(0.053003695 -1.0487404e-005 0.00030542143)
(0.053032859 -1.1859779e-005 0.00031753871)
(0.053076959 -1.2700814e-005 0.00033671606)
(0.053125382 -1.4219884e-005 0.00035499485)
(0.053183082 -1.8728098e-005 0.0003612232)
(0.053256128 -2.3140711e-005 0.00035687442)
(0.053328482 -2.2964e-005 0.00034652026)
(0.053361904 -1.8417044e-005 0.00033488342)
(0.053360574 -1.2246219e-005 0.00032574017)
(0.053355639 -5.1179431e-006 0.00031410606)
(0.053353314 8.3790164e-007 0.00029722043)
(0.070826132 1.1836214e-005 0.00037863516)
(0.070869544 1.6028056e-005 0.00035000937)
(0.070896628 2.0353597e-005 0.0003022202)
(0.070893977 2.6703291e-005 0.00024368208)
(0.070890072 3.2340333e-005 0.00019778765)
(0.070879657 3.6418359e-005 0.00018586176)
(0.070864114 3.9889894e-005 0.00019374609)
(0.070850564 4.44015e-005 0.00019919496)
(0.070821963 4.9606384e-005 0.00019922271)
(0.070760437 5.2540525e-005 0.00020102377)
(0.070666069 4.9179979e-005 0.00021789418)
(0.070562823 3.9436419e-005 0.00024246849)
(0.070492103 2.7304179e-005 0.00026678208)
(0.070451648 1.5105527e-005 0.00029089592)
(0.070425502 -7.8020072e-007 0.00031543517)
(0.070402833 -1.4565471e-005 0.00033532148)
(0.070378708 -2.3146264e-005 0.00034400774)
(0.070356238 -2.558477e-005 0.00034414623)
(0.070335883 -2.3238049e-005 0.0003417919)
(0.070337266 -2.3033956e-005 0.00034373536)
(0.070379156 -2.7379076e-005 0.00035373997)
(0.070446472 -2.9595729e-005 0.0003740039)
(0.070524762 -3.1753994e-005 0.00039178165)
(0.070603689 -3.7226519e-005 0.00039517492)
(0.070676446 -4.2233245e-005 0.0003945564)
(0.070745059 -3.9297108e-005 0.00039580399)
(0.070775813 -2.9339699e-005 0.00039692066)
(0.070766596 -1.7365147e-005 0.00040069747)
(0.070764296 -5.6585608e-006 0.00039795198)
(0.070781954 5.0873432e-006 0.00039056503)
(0.084232878 3.9009555e-005 0.00043350962)
(0.084285683 4.8916943e-005 0.00042534257)
(0.084302743 5.5598711e-005 0.000395527)
(0.084303167 5.899976e-005 0.00035778034)
(0.084311698 6.0916632e-005 0.00033850691)
(0.084322667 6.3397617e-005 0.00035650018)
(0.084328539 6.6369535e-005 0.00038604999)
(0.084325392 6.9356375e-005 0.00040521863)
(0.084300811 7.2131339e-005 0.00040491637)
(0.08424101 7.165948e-005 0.00038203812)
(0.084151892 6.4566316e-005 0.00035078836)
(0.084059859 5.0217525e-005 0.00032474945)
(0.083981133 3.3107615e-005 0.00031519969)
(0.083926637 1.5846834e-005 0.00032138311)
(0.083885436 -5.5776679e-006 0.00033820401)
(0.083837892 -2.1717072e-005 0.00035071762)
(0.08378194 -2.9091923e-005 0.00036227239)
(0.083732465 -2.8594388e-005 0.00037512105)
(0.083689858 -2.3156848e-005 0.00038123227)
(0.083676838 -2.3006295e-005 0.00037495934)
(0.083702108 -2.9510658e-005 0.00036313003)
(0.083763999 -3.341071e-005 0.00036040063)
(0.083859162 -3.6355537e-005 0.00035690155)
(0.083956468 -4.1547157e-005 0.00035007663)
(0.084029196 -4.6006069e-005 0.00035787083)
(0.084100864 -3.9682996e-005 0.00037385601)
(0.084149245 -2.1635784e-005 0.00038634241)
(0.084141733 -2.2229037e-006 0.00040152901)
(0.084134258 1.2589628e-005 0.00041280579)
(0.084165223 2.6400327e-005 0.00042333136)
(0.094185216 7.1877631e-005 0.00042965824)
(0.094219765 8.7277395e-005 0.00044209547)
(0.094214067 9.6556857e-005 0.00043979909)
(0.094204173 9.7243445e-005 0.00044043345)
(0.09421504 9.5097957e-005 0.00045927912)
(0.094242136 9.4461052e-005 0.00049945915)
(0.094260246 9.5016396e-005 0.00054217643)
(0.094260668 9.3651216e-005 0.00056998047)
(0.094246258 8.9961967e-005 0.00056660034)
(0.09421506 8.4768395e-005 0.00052131021)
(0.094168199 7.4937651e-005 0.00045296361)
(0.094116728 5.9697845e-005 0.0003917616)
(0.094052169 4.1289362e-005 0.00035411696)
(0.093989986 2.0494636e-005 0.00033881065)
(0.093934104 -4.5821209e-006 0.0003422778)
(0.093865329 -2.0012752e-005 0.00035116582)
(0.093785554 -2.4143338e-005 0.00037043846)
(0.093723534 -1.9334586e-005 0.00039079339)
(0.093671803 -9.1470512e-006 0.00039786292)
(0.093640829 -6.4002141e-006 0.0003789423)
(0.093639963 -1.2048599e-005 0.00034109598)
(0.093677496 -1.6723842e-005 0.00030391788)
(0.093764246 -2.1807165e-005 0.00027074908)
(0.09387625 -2.8525024e-005 0.00025223973)
(0.093962801 -3.2099906e-005 0.00026603807)
(0.094041645 -2.3262318e-005 0.00029178819)
(0.094114574 4.3671631e-007 0.0003134328)
(0.094130411 2.4955721e-005 0.00033711728)
(0.094117025 4.1285569e-005 0.00036769101)
(0.094133294 5.5489989e-005 0.00040008079)
(0.10163818 0.00010289706 0.0004098284)
(0.10163351 0.00011806768 0.00044391745)
(0.10160888 0.00012740649 0.00047082121)
(0.10158919 0.00012612328 0.00049854662)
(0.10159866 0.00011913857 0.0005291007)
(0.10163778 0.00011164003 0.00056263646)
(0.10165889 0.00010450918 0.00060209933)
(0.10166734 9.8215926e-005 0.00062927949)
(0.10168229 9.1936902e-005 0.00061976893)
(0.10170475 8.70728e-005 0.00056815714)
(0.10170856 7.8459151e-005 0.00049257804)
(0.1016885 6.4183803e-005 0.0004135985)
(0.10163387 4.6549327e-005 0.00034398151)
(0.10156374 2.5387338e-005 0.00029562454)
(0.10148854 2.5925762e-006 0.00027477681)
(0.10140843 -1.0149753e-005 0.00028271985)
(0.10132825 -1.1810931e-005 0.00030933571)
(0.10126334 -5.1854992e-006 0.00032885517)
(0.10120219 9.2379031e-006 0.00033143182)
(0.10116074 1.7561007e-005 0.00031163963)
(0.10114306 1.6645578e-005 0.00027489257)
(0.10115448 1.289237e-005 0.00023409075)
(0.10120746 6.2010686e-006 0.0002005173)
(0.10130235 -1.2338282e-006 0.0001836994)
(0.10139061 -4.3873305e-006 0.00019786541)
(0.10146534 2.7875667e-006 0.00022582504)
(0.10155557 2.6103456e-005 0.00025350032)
(0.10162161 5.4560903e-005 0.00028584962)
(0.10163508 7.5132511e-005 0.00032754543)
(0.10163319 8.9251806e-005 0.00036936335)
(0.10736313 0.0001276175 0.00037613308)
(0.10733867 0.00013970108 0.00043272421)
(0.10731738 0.00014714141 0.00048520529)
(0.10730867 0.00014287891 0.00051653334)
(0.10732862 0.00012876731 0.00052543281)
(0.10737665 0.00011287675 0.00052799705)
(0.10741269 9.8862077e-005 0.00054364796)
(0.10744016 8.8468417e-005 0.00055383779)
(0.10746492 8.1347843e-005 0.00053535846)
(0.10750261 7.6150326e-005 0.00049102192)
(0.10753145 6.8576802e-005 0.00042757667)
(0.10754086 5.7307424e-005 0.00034679431)
(0.10751953 4.198644e-005 0.00026033688)
(0.10747392 2.5179964e-005 0.000188805)
(0.10740383 9.8752061e-006 0.00014609082)
(0.10732347 2.3889282e-006 0.00014656321)
(0.10723959 2.021877e-006 0.00017014964)
(0.10716554 7.8173513e-006 0.0001884299)
(0.10709094 2.2012007e-005 0.00019518159)
(0.10703747 3.4346237e-005 0.00018884778)
(0.1070034 4.1659872e-005 0.00017577703)
(0.10698436 4.3071991e-005 0.00016619063)
(0.10697558 3.8221276e-005 0.00016697295)
(0.10700018 3.2227184e-005 0.00017643465)
(0.10705354 2.9219078e-005 0.00019816295)
(0.10711436 3.2173428e-005 0.00022486826)
(0.10720623 4.99932e-005 0.00025177047)
(0.10730625 7.8118155e-005 0.00028091427)
(0.10736668 0.00010414799 0.00030864427)
(0.10738247 0.00011865247 0.0003343652)
(0.11192008 0.00014470746 0.00031361427)
(0.11190907 0.00015335571 0.00037046681)
(0.11190741 0.00015552968 0.00042089923)
(0.11192263 0.00014470112 0.00044126061)
(0.11194955 0.00012513534 0.00043118181)
(0.11199767 0.00010581438 0.00041127417)
(0.11205698 9.0930214e-005 0.00040446106)
(0.11211451 7.6383361e-005 0.00039273639)
(0.11214703 6.3974556e-005 0.00036364841)
(0.11217974 5.5541626e-005 0.00031994432)
(0.11220833 4.8468848e-005 0.000269557)
(0.11223523 3.8769444e-005 0.00021138908)
(0.11225124 2.7544912e-005 0.00014445133)
(0.11224962 1.7602294e-005 8.1572501e-005)
(0.11221735 1.1784853e-005 3.4507622e-005)
(0.11215313 1.2613241e-005 1.8418921e-005)
(0.11206267 1.6425287e-005 2.6288001e-005)
(0.11197218 2.2913287e-005 4.6228362e-005)
(0.11186672 3.4391121e-005 6.7556607e-005)
(0.11177993 4.664962e-005 8.3621413e-005)
(0.11171851 5.8527837e-005 9.2868751e-005)
(0.1116737 6.7395205e-005 0.00010206963)
(0.11162456 7.0233772e-005 0.00012285907)
(0.11158043 6.8722825e-005 0.00015470577)
(0.11157005 6.5959725e-005 0.00018702831)
(0.11159709 6.1932119e-005 0.00021605547)
(0.11166909 6.7250061e-005 0.00024198768)
(0.11177567 8.674022e-005 0.00026176292)
(0.11186651 0.00011241353 0.00027110468)
(0.11191982 0.00013201997 0.00027816924)
(0.1157276 0.00013457607 0.00022696767)
(0.11573993 0.00014601601 0.00025304978)
(0.11575501 0.00014968579 0.00026323226)
(0.11578261 0.00013965668 0.00026167759)
(0.11580353 0.00012160103 0.00025475401)
(0.11583436 0.00010413586 0.00024079361)
(0.1158879 8.633709e-005 0.00023421804)
(0.11596212 6.5498016e-005 0.00022338039)
(0.11602113 4.4795095e-005 0.00020089338)
(0.11607248 3.0219163e-005 0.00016446427)
(0.11610801 2.1451248e-005 0.00012596837)
(0.11613063 1.3883127e-005 9.0874729e-005)
(0.11614632 1.0264393e-005 5.2297351e-005)
(0.11616064 8.2230344e-006 1.1548365e-005)
(0.11615514 8.9810369e-006 -2.6603165e-005)
(0.11612181 1.6336728e-005 -5.6313188e-005)
(0.11606843 2.5602086e-005 -6.6927812e-005)
(0.11600747 3.5932584e-005 -4.5615464e-005)
(0.11589679 5.03948e-005 -2.2044378e-006)
(0.11576572 6.289639e-005 4.0518e-005)
(0.11564817 7.2369318e-005 6.8646962e-005)
(0.11557421 8.0864108e-005 7.7723153e-005)
(0.11551962 8.7478984e-005 8.4353776e-005)
(0.11547069 9.0669966e-005 0.00010013348)
(0.11542253 8.8214299e-005 0.00012006203)
(0.11540665 7.5940568e-005 0.00014270525)
(0.11544837 6.6575256e-005 0.00017037713)
(0.1155419 7.4661927e-005 0.00019108898)
(0.11563253 9.4644473e-005 0.00019870797)
(0.11569986 0.0001157041 0.00020217674)
(0.11894093 8.2656518e-005 8.13467e-005)
(0.11896436 9.4397572e-005 9.1312868e-005)
(0.11900058 0.0001025204 8.3487268e-005)
(0.11904341 0.00010265745 6.5702834e-005)
(0.11907189 9.7174335e-005 5.9876257e-005)
(0.11910583 8.6650691e-005 6.1389961e-005)
(0.11914206 7.0306259e-005 6.9250573e-005)
(0.119201 5.0574445e-005 7.4093392e-005)
(0.11926912 3.1075037e-005 7.4635717e-005)
(0.11933073 1.2547568e-005 6.1450382e-005)
(0.11937142 -8.8806797e-007 3.6604208e-005)
(0.11938397 -6.7692576e-006 9.7223862e-006)
(0.11938713 -7.3661851e-006 -1.9704497e-005)
(0.11940052 -6.7109351e-006 -5.7012921e-005)
(0.11940432 -5.4818296e-006 -9.2700356e-005)
(0.1194084 4.0399689e-006 -0.00012112458)
(0.11941326 1.8014101e-005 -0.00013688146)
(0.11941801 3.3279428e-005 -0.00012550655)
(0.11937402 5.2108228e-005 -8.5155689e-005)
(0.11927286 6.7649363e-005 -3.2760564e-005)
(0.11913613 7.4291859e-005 1.8506335e-005)
(0.11902795 7.5264734e-005 4.9341861e-005)
(0.11893816 7.4507048e-005 5.7801132e-005)
(0.1188751 7.2099472e-005 5.6441617e-005)
(0.11882279 6.6271804e-005 5.8664218e-005)
(0.11880059 5.3821515e-005 6.6540059e-005)
(0.11880328 4.2542808e-005 7.9793226e-005)
(0.11883271 4.3438157e-005 8.669646e-005)
(0.11887432 5.5950962e-005 8.1817109e-005)
(0.11891499 7.0324891e-005 7.4200782e-005)
(0.12166856 1.9110742e-005 -7.530237e-005)
(0.12169514 2.3794143e-005 -8.0467389e-005)
(0.12174316 2.9300132e-005 -8.4395459e-005)
(0.121797 3.5998074e-005 -0.00010098813)
(0.12182447 4.1871222e-005 -0.00010913647)
(0.12185691 4.2099214e-005 -0.00010451292)
(0.1218796 3.4360261e-005 -8.5616139e-005)
(0.12191505 2.1869654e-005 -6.4353329e-005)
(0.12196359 9.5458441e-006 -4.930338e-005)
(0.12201664 -3.2807061e-006 -4.8374385e-005)
(0.12204749 -1.3427022e-005 -6.3261668e-005)
(0.12206236 -1.735764e-005 -8.4003012e-005)
(0.12207975 -1.6825965e-005 -0.00010414638)
(0.12211105 -1.7120891e-005 -0.00013366874)
(0.12213264 -1.5402605e-005 -0.00016440813)
(0.12217483 -5.5671605e-006 -0.00017973423)
(0.12222333 1.1410662e-005 -0.00018097942)
(0.12227317 2.8102412e-005 -0.00017967701)
(0.12228713 4.7119791e-005 -0.00017011665)
(0.12225733 6.2051206e-005 -0.00014245803)
(0.12218236 6.3081775e-005 -9.4228408e-005)
(0.12210763 5.6233961e-005 -4.2305657e-005)
(0.1220233 4.6981854e-005 -6.5052659e-006)
(0.12194241 3.5278193e-005 7.3171286e-006)
(0.12186772 2.1459215e-005 1.8591137e-005)
(0.12183354 7.9641816e-006 2.8171801e-005)
(0.12179358 2.405521e-006 2.8453299e-005)
(0.12174816 2.5530103e-006 1.394262e-005)
(0.1217073 8.827496e-006 -1.4225623e-005)
(0.12167747 1.5089382e-005 -5.022748e-005)
(0.12415249 -3.4595549e-005 -0.00013734311)
(0.12415988 -4.173443e-005 -0.00017329798)
(0.12417978 -4.4972638e-005 -0.00019584127)
(0.1242084 -3.9349572e-005 -0.00021528138)
(0.12421117 -2.9115334e-005 -0.00023113497)
(0.12421037 -1.9575273e-005 -0.00023536786)
(0.12421251 -1.2629724e-005 -0.00022280057)
(0.12423525 -1.2032561e-005 -0.00020219768)
(0.12427269 -1.7803314e-005 -0.00018706081)
(0.12432838 -2.4440021e-005 -0.00018337406)
(0.12437093 -2.6749732e-005 -0.0001873698)
(0.12440014 -2.6285763e-005 -0.00019650127)
(0.12443058 -2.5666205e-005 -0.00019893044)
(0.12447232 -2.5843043e-005 -0.0002023777)
(0.1245056 -2.4586296e-005 -0.00021182245)
(0.124552 -1.7691451e-005 -0.00022090667)
(0.12460235 -5.2865568e-006 -0.00021480311)
(0.12465046 9.0096359e-006 -0.00020697961)
(0.1246645 2.7074087e-005 -0.00020464255)
(0.12465577 3.7178439e-005 -0.00020498441)
(0.12462941 3.0284829e-005 -0.00018980332)
(0.12461772 1.8264471e-005 -0.00015462315)
(0.12460207 8.8149415e-006 -0.0001079603)
(0.12457025 6.169114e-007 -7.1963754e-005)
(0.12449922 -7.9844995e-006 -4.4648147e-005)
(0.12442408 -2.0510649e-005 -2.8089595e-005)
(0.12435346 -2.8316166e-005 -2.4224141e-005)
(0.12429905 -3.0191802e-005 -3.8197552e-005)
(0.12424482 -2.7760604e-005 -6.176485e-005)
(0.12418793 -2.8931599e-005 -9.6551505e-005)
(0.12640967 -5.9997063e-005 -0.00016140963)
(0.1263808 -7.003084e-005 -0.00019919603)
(0.12634988 -7.8878624e-005 -0.00023013197)
(0.12633568 -7.9981817e-005 -0.00025079426)
(0.12632247 -7.1926643e-005 -0.00027917937)
(0.12631392 -5.7042701e-005 -0.00030817865)
(0.12631236 -4.1066928e-005 -0.00032179198)
(0.1263307 -2.7235041e-005 -0.0003223069)
(0.12636287 -2.2816498e-005 -0.00031691937)
(0.12642675 -2.0977538e-005 -0.00031274437)
(0.12650198 -1.6121682e-005 -0.00030650698)
(0.12657241 -9.5440825e-006 -0.00030204368)
(0.12662805 -9.4833855e-006 -0.00029185589)
(0.12667674 -1.1523598e-005 -0.00027537361)
(0.12670664 -1.4733083e-005 -0.00025820186)
(0.1267346 -1.5781377e-005 -0.00025603627)
(0.12676543 -1.2985157e-005 -0.00025594059)
(0.12680028 -6.2456529e-006 -0.00024670444)
(0.12681085 6.2599904e-006 -0.00022980318)
(0.12680844 1.2762865e-005 -0.00021956436)
(0.12679366 2.0127259e-006 -0.00021569517)
(0.12678794 -1.9349319e-005 -0.00021035741)
(0.1267968 -3.6172865e-005 -0.00018642523)
(0.1268021 -4.5012517e-005 -0.00014407167)
(0.12676025 -4.9794549e-005 -0.00010369425)
(0.12667829 -5.6326573e-005 -8.3998514e-005)
(0.12658664 -5.9992456e-005 -8.3092084e-005)
(0.1265234 -5.8981702e-005 -9.5120628e-005)
(0.12647956 -5.3268766e-005 -0.00011251188)
(0.12644469 -5.2611412e-005 -0.00013255731)
(0.12847088 -8.4628506e-005 -0.00019491234)
(0.12841423 -8.3544197e-005 -0.00021826102)
(0.12834742 -8.371943e-005 -0.00024188935)
(0.12829724 -8.0785405e-005 -0.0002628228)
(0.12826931 -6.8617374e-005 -0.00029368008)
(0.12827727 -4.781422e-005 -0.00033650108)
(0.12829915 -2.7446363e-005 -0.00037238513)
(0.12831865 -1.1791412e-005 -0.00039426041)
(0.12833567 -8.2399129e-006 -0.00040107757)
(0.12836891 -1.3587043e-005 -0.00040034704)
(0.12842162 -1.5268154e-005 -0.00039066986)
(0.1284936 -1.1543272e-005 -0.00037963867)
(0.12857004 -6.6422364e-006 -0.00036646274)
(0.12865309 -1.8581695e-006 -0.00034652663)
(0.12871221 2.748027e-006 -0.00031477284)
(0.12875041 2.5578143e-006 -0.00029130672)
(0.12877961 -3.6051215e-006 -0.00028331662)
(0.12881883 -9.4972711e-006 -0.00027833294)
(0.12885273 -8.6418956e-006 -0.00026327551)
(0.1288809 -6.4498186e-006 -0.00023810533)
(0.12889382 -1.3728333e-005 -0.00020570002)
(0.12889188 -3.1999146e-005 -0.00017975336)
(0.12887413 -5.1415575e-005 -0.00016360432)
(0.12885624 -6.4988956e-005 -0.00014458027)
(0.12882483 -7.3402095e-005 -0.00012092385)
(0.12877004 -8.0840402e-005 -0.00010653694)
(0.12869697 -8.5570139e-005 -0.00010816424)
(0.12862802 -8.4664538e-005 -0.0001264209)
(0.12856817 -8.2610824e-005 -0.00015152781)
(0.12852088 -8.2891666e-005 -0.00017472333)
(0.13042345 -9.4598522e-005 -0.00022323079)
(0.13036375 -8.5305489e-005 -0.00024079741)
(0.13029418 -7.4932519e-005 -0.00025567688)
(0.13022496 -6.5161714e-005 -0.0002710632)
(0.13016481 -4.8519758e-005 -0.00029601141)
(0.13014502 -3.0610671e-005 -0.00033529611)
(0.13015813 -1.029289e-005 -0.00037282633)
(0.13017391 6.8555651e-006 -0.00039307161)
(0.13017426 1.4610253e-005 -0.00040015115)
(0.13017594 1.0031798e-005 -0.00040022509)
(0.13018598 4.1213871e-007 -0.00039272325)
(0.13022077 -6.7702399e-006 -0.00037792198)
(0.13028263 -8.5894909e-006 -0.00036099603)
(0.13037917 -5.0148816e-006 -0.00033838821)
(0.13047178 4.2981989e-006 -0.00030571125)
(0.13054357 9.9566941e-006 -0.00027028072)
(0.13059779 2.9340237e-006 -0.00024747433)
(0.1306482 -1.2736126e-005 -0.00023458196)
(0.13069783 -2.3774942e-005 -0.00022417688)
(0.1307507 -2.9350922e-005 -0.00020839872)
(0.1307882 -3.6762771e-005 -0.00017560228)
(0.13081599 -4.732463e-005 -0.00013156246)
(0.13080754 -6.0349598e-005 -9.8760595e-005)
(0.13077491 -7.1100142e-005 -9.0482037e-005)
(0.13074005 -7.6563091e-005 -0.00010047221)
(0.13070391 -8.3124001e-005 -0.00011304023)
(0.13065375 -9.2007652e-005 -0.00012230504)
(0.13060358 -9.6810608e-005 -0.00013978162)
(0.13054518 -9.9418837e-005 -0.00016935749)
(0.13048672 -9.9458967e-005 -0.00020053214)
(0.1322286 -0.0001020889 -0.00016921155)
(0.13216517 -9.1873878e-005 -0.0001919233)
(0.13211152 -8.1973292e-005 -0.00020557025)
(0.13205805 -7.2336323e-005 -0.00021301883)
(0.13199792 -6.0753432e-005 -0.00022307152)
(0.13194062 -4.9792875e-005 -0.00024744169)
(0.13189915 -3.716307e-005 -0.00027680051)
(0.131878 -2.1971037e-005 -0.00029307661)
(0.13186542 -7.8054563e-006 -0.00029905916)
(0.13186245 1.7031065e-006 -0.00030270641)
(0.13186854 3.3617813e-006 -0.00030354271)
(0.13188631 -1.7066233e-006 -0.00029590981)
(0.13192016 -9.5060036e-006 -0.00028240257)
(0.13198618 -1.3273504e-005 -0.00026410166)
(0.1320683 -1.0216e-005 -0.00023639892)
(0.13214431 -4.5785935e-006 -0.00020198553)
(0.13220968 -5.7781469e-006 -0.00017071318)
(0.13227227 -1.913593e-005 -0.00014785783)
(0.13233554 -3.4727986e-005 -0.00013343651)
(0.13240289 -4.7036174e-005 -0.00012714701)
(0.1324545 -5.4236779e-005 -0.00011659246)
(0.13249692 -6.1211593e-005 -9.5130307e-005)
(0.13252069 -7.0041233e-005 -7.169458e-005)
(0.132523 -8.0023043e-005 -6.1789127e-005)
(0.13250958 -8.5342411e-005 -7.1726601e-005)
(0.13249001 -9.0943235e-005 -8.9189395e-005)
(0.13245861 -9.8335357e-005 -9.6346283e-005)
(0.1324215 -0.00010620636 -9.86698e-005)
(0.13236794 -0.00011154209 -0.00011221338)
(0.13230109 -0.00011005533 -0.00013994354)
(0.13388864 -0.00011647279 -0.00010847668)
(0.13381435 -0.00011608892 -0.00012830749)
(0.13374477 -0.00011389453 -0.00013962459)
(0.13367686 -0.00011062763 -0.00013964391)
(0.13361233 -0.00010233255 -0.00013383493)
(0.13355146 -8.9859967e-005 -0.00013247668)
(0.13349277 -7.5452559e-005 -0.00013947699)
(0.1334501 -6.2218668e-005 -0.00014856157)
(0.13342861 -5.2264947e-005 -0.00015827979)
(0.13342443 -4.5608208e-005 -0.0001705361)
(0.13343995 -3.9057385e-005 -0.00018346906)
(0.133473 -3.5865466e-005 -0.00018907515)
(0.13350514 -3.3531209e-005 -0.00018284795)
(0.13354176 -3.0918001e-005 -0.00016550341)
(0.13359266 -2.511773e-005 -0.00014094452)
(0.13365125 -1.8264984e-005 -0.00011235718)
(0.13370493 -1.6134484e-005 -8.8476329e-005)
(0.13375795 -2.3274016e-005 -6.9570688e-005)
(0.13381345 -3.5273559e-005 -5.8841732e-005)
(0.1338742 -4.5724229e-005 -6.0805827e-005)
(0.13393097 -5.0075159e-005 -6.8909245e-005)
(0.13397793 -5.3052535e-005 -7.4292535e-005)
(0.13401611 -5.6938087e-005 -7.6513328e-005)
(0.13404331 -6.6962625e-005 -7.6408234e-005)
(0.13406077 -7.5981226e-005 -7.6891078e-005)
(0.13407031 -8.3933491e-005 -8.1635493e-005)
(0.13406689 -9.147253e-005 -8.2673637e-005)
(0.13404895 -0.00010158202 -7.8422454e-005)
(0.13401448 -0.00010983879 -7.7422253e-005)
(0.13395922 -0.00011543026 -8.8207052e-005)
(0.13548526 -8.8506291e-005 -8.4622273e-005)
(0.13545682 -9.6128485e-005 -0.00010196187)
(0.13540986 -0.00010290825 -0.00011715404)
(0.13534408 -0.00011101314 -0.00012849078)
(0.13526388 -0.00011557771 -0.00013789606)
(0.13518718 -0.0001140698 -0.00014631651)
(0.13511738 -0.00010523178 -0.00015220942)
(0.13506628 -9.1174628e-005 -0.00015542547)
(0.13503499 -8.0599732e-005 -0.00015754124)
(0.13501476 -7.5114441e-005 -0.00015883106)
(0.13500052 -7.3538608e-005 -0.0001595998)
(0.13500291 -7.2718982e-005 -0.00016319446)
(0.13501501 -6.9907938e-005 -0.0001623559)
(0.1350296 -6.3456864e-005 -0.0001500244)
(0.13505172 -5.2499976e-005 -0.00012839272)
(0.13508737 -3.856294e-005 -0.00010183163)
(0.13512499 -3.0741656e-005 -7.9359058e-005)
(0.13516047 -3.2775094e-005 -6.6196456e-005)
(0.1351939 -3.9123501e-005 -6.3513269e-005)
(0.13523826 -4.4662047e-005 -7.0421188e-005)
(0.13528908 -4.7307562e-005 -7.9575039e-005)
(0.1353372 -4.7256795e-005 -8.7322704e-005)
(0.13537066 -4.6269495e-005 -9.1840513e-005)
(0.13539474 -4.9880788e-005 -9.1852737e-005)
(0.13541354 -5.6884973e-005 -8.6648195e-005)
(0.13543152 -6.2962312e-005 -8.4367488e-005)
(0.13545306 -6.7397799e-005 -8.3268769e-005)
(0.13547386 -7.1872334e-005 -8.1164615e-005)
(0.13548925 -7.6356e-005 -7.6965124e-005)
(0.13549459 -8.2219061e-005 -7.5923668e-005)
(0.13701645 -4.8318836e-005 -0.00010913089)
(0.1370507 -5.5612343e-005 -0.00011138307)
(0.13706178 -6.487574e-005 -0.00011939094)
(0.13704657 -7.6019378e-005 -0.0001335751)
(0.13700552 -8.6358151e-005 -0.00015599634)
(0.13695001 -9.2254262e-005 -0.00018291479)
(0.1368898 -9.1432326e-005 -0.00020818162)
(0.13683549 -8.4030324e-005 -0.00022455536)
(0.13679242 -7.5089308e-005 -0.00023013975)
(0.13675539 -6.7568255e-005 -0.00022312622)
(0.13671327 -6.4593968e-005 -0.00020592921)
(0.13666907 -6.3980128e-005 -0.00018923522)
(0.13663021 -6.3307493e-005 -0.00017831472)
(0.13660062 -5.7845265e-005 -0.00016489443)
(0.13658383 -4.5396152e-005 -0.00015004571)
(0.13658205 -2.7153768e-005 -0.00013343604)
(0.13659833 -1.3323531e-005 -0.0001154209)
(0.13662397 -1.039818e-005 -0.00010224795)
(0.136651 -1.6558152e-005 -0.00010028051)
(0.13668547 -2.3722161e-005 -0.0001101703)
(0.13673007 -2.8177737e-005 -0.00012379593)
(0.13677445 -2.8260694e-005 -0.00013262043)
(0.13680071 -2.4862396e-005 -0.00013632727)
(0.13681325 -2.4023785e-005 -0.00013630288)
(0.13682385 -2.6567083e-005 -0.00013574517)
(0.13683274 -3.1638916e-005 -0.00013762011)
(0.13684458 -3.411943e-005 -0.00013816443)
(0.13686959 -3.4586993e-005 -0.00013304404)
(0.13691256 -3.6116421e-005 -0.00012485731)
(0.13696523 -4.1319028e-005 -0.00011455274)
(0.13854522 -3.1355174e-005 -0.00021714039)
(0.13858345 -3.9236397e-005 -0.00020313479)
(0.13861001 -4.7567878e-005 -0.00019321132)
(0.13861922 -5.80641e-005 -0.00019387092)
(0.13861293 -6.7764662e-005 -0.0002030658)
(0.13859217 -7.268363e-005 -0.0002165356)
(0.1385584 -7.3541687e-005 -0.0002296074)
(0.13851722 -7.2677643e-005 -0.00024231563)
(0.13847777 -6.9080945e-005 -0.00025330613)
(0.13844207 -6.1673262e-005 -0.00026207401)
(0.13841139 -5.0672675e-005 -0.00026484512)
(0.13837904 -4.023276e-005 -0.00026318393)
(0.13834304 -3.475473e-005 -0.00025647786)
(0.13830141 -3.1801002e-005 -0.00024460235)
(0.13826303 -2.7134891e-005 -0.0002306003)
(0.13822932 -1.699561e-005 -0.0002181319)
(0.13820997 -5.6035501e-006 -0.00020404971)
(0.13821053 2.4796175e-006 -0.00018843692)
(0.13822605 3.9260228e-006 -0.00017600732)
(0.13824728 9.9847794e-007 -0.00017405781)
(0.13827145 -3.4607535e-006 -0.00018262326)
(0.13830272 -3.3158541e-006 -0.00019384439)
(0.1383328 2.5985479e-007 -0.00020244143)
(0.13835422 3.9236079e-006 -0.00021105311)
(0.13837442 3.4922519e-006 -0.0002214896)
(0.13839486 -1.7602933e-007 -0.00023416949)
(0.1384139 -5.5967522e-006 -0.00024408621)
(0.13843083 -8.780333e-006 -0.0002465444)
(0.138461 -1.3562174e-005 -0.00024112769)
(0.13850133 -2.1833991e-005 -0.00023072742)
(0.14005865 -2.3722633e-005 -0.00032166222)
(0.14007684 -2.8630668e-005 -0.00030634633)
(0.14009246 -3.3321377e-005 -0.0002897604)
(0.14009996 -3.8723734e-005 -0.00027734474)
(0.14010465 -4.6267772e-005 -0.00027208605)
(0.14009795 -5.3660517e-005 -0.00027032673)
(0.14007812 -5.9645015e-005 -0.00026993902)
(0.14004999 -6.2969581e-005 -0.0002737185)
(0.14002527 -6.5278497e-005 -0.00028342277)
(0.13999907 -6.5197227e-005 -0.0002987907)
(0.13998021 -6.2447901e-005 -0.00031608244)
(0.13996629 -5.5287182e-005 -0.00033400705)
(0.13996099 -4.8872626e-005 -0.00034992578)
(0.1399499 -4.4748628e-005 -0.00036056048)
(0.13993282 -4.3256234e-005 -0.00036581324)
(0.13990507 -4.1132135e-005 -0.00036818669)
(0.1398717 -3.8663603e-005 -0.00036947801)
(0.13983894 -3.6520299e-005 -0.00036844179)
(0.13982045 -3.5754027e-005 -0.00036187502)
(0.13981602 -3.7591306e-005 -0.00035352427)
(0.13982151 -3.8515544e-005 -0.00034790776)
(0.13983545 -3.5376781e-005 -0.00034494963)
(0.13986147 -3.0078532e-005 -0.00034233121)
(0.13988661 -2.2961216e-005 -0.00034084459)
(0.13991329 -1.855652e-005 -0.00034241531)
(0.13994043 -1.5530739e-005 -0.00034461992)
(0.13997098 -1.4872414e-005 -0.00034621001)
(0.13999321 -1.2402109e-005 -0.00034535367)
(0.14001634 -1.2444866e-005 -0.00034107309)
(0.14003798 -1.6457975e-005 -0.00033216837)
(0.1414629 -0.00010297758 -0.00043836041)
(0.14146468 -0.00010614222 -0.00043775436)
(0.14146984 -0.00010543913 -0.00043450469)
(0.14147583 -0.00010284811 -0.00042864055)
(0.1414898 -9.8486574e-005 -0.00042255613)
(0.14150328 -9.5624055e-005 -0.00041262975)
(0.141511 -9.3465481e-005 -0.00040281392)
(0.14150811 -9.2757241e-005 -0.00039624513)
(0.14150565 -9.212316e-005 -0.00039549333)